TITLE = "B00002"
VARIABLES = "x", "y", "displacement-x", "displacement-y"
ZONE T="Frame 0", I=374, J=300, F=POINT
471 15 0.9924173355 -10.3914375305
477 15 1.043504715 -10.2007808685
483 15 0.931063652 -8.0238952637
489 15 -4.2937159538 -7.5939397812
495 15 0.8921794891 -12.4907302856
633 15 4.1737747192 -0.6817445755
639 15 4.7259678841 -0.263045311
645 15 5.8894662857 -1.9175252914
891 15 0.7992954254 -2.4723157883
897 15 4.7983198166 -2.0648355484
903 15 6.1744246483 -1.9930276871
909 15 6.3703985214 -2.4522247314
915 15 5.3723163605 -3.2301616669
1113 15 1.7038002014 -1.8085708618
1119 15 4.6980924606 -1.9753866196
1125 15 5.0386042595 -1.4338674545
1131 15 4.0167999268 -1.066567421
1137 15 3.495308876 -1.0472173691
1143 15 3.0294308662 -1.5662870407
1149 15 3.6222343445 -2.0308141708
1155 15 3.5811128616 -2.4251689911
1203 15 2.7821588516 -1.0662498474
1209 15 2.9441728592 -0.3680429459
1215 15 2.6705636978 -0.2492361069
1221 15 2.0991449356 -0.1140079498
1227 15 1.6385660172 -0.6047477722
1233 15 1.4979572296 -1.9865484238
1299 15 3.2025027275 -0.8996839523
1305 15 3.2017641068 -0.3254451752
1311 15 2.7872209549 0.810426712
1317 15 1.7145395279 -0.0510482788
1323 15 -2.433590889 -1.2129573822
1329 15 4.4768819809 -2.0909986496
1335 15 6.5142116547 -3.2559375763
1341 15 6.8997917175 -3.0850543976
1347 15 5.6132583618 -2.4340591431
1353 15 2.5905923843 -0.7719287872
1365 15 7.4369249344 7.0059967041
1371 15 7.995926857 6.000787735
1377 15 6.4156923294 0.1443099976
1383 15 6.7918434143 -2.8097801208
1389 15 8.4562215805 -3.6530399323
1395 15 5.0968670845 -5.576292038
1401 15 6.1011009216 -5.7375774384
1407 15 4.6587295532 -4.0862312317
1413 15 2.6521930695 -2.9341220856
1419 15 2.2364187241 -2.2249135971
1425 15 1.5074834824 -1.1071033478
1431 15 1.1823215485 -0.6592922211
1437 15 1.4838829041 -0.7616071701
1443 15 2.3018484116 -0.3195419312
1449 15 3.0605506897 -0.0853462219
1455 15 3.8574867249 0.0517234802
1461 15 3.1513576508 0.0244913101
1467 15 3.3055038452 -0.6470279694
1473 15 3.4097728729 -0.8374576569
1479 15 3.7946662903 -0.6635789871
1485 15 4.27085495 -0.6372470856
1491 15 4.8900194168 -0.1873493195
1497 15 4.4146680832 0.1401185989
1503 15 4.0983972549 0.346575737
1509 15 3.5919075012 0.506196022
1515 15 2.6967144012 0.5325603485
1521 15 3.9929971695 0.2506561279
1527 15 3.1720676422 -0.2532148361
1533 15 3.2809457779 -0.4836273193
1539 15 3.1291303635 -0.3629751205
1545 15 0.9858016968 -0.2029342651
1551 15 2.102555275 -0.1441011429
1557 15 1.9060277939 0.4655094147
1563 15 1.020825386 0.2067947388
1569 15 0.5009145737 -0.2970752716
1575 15 0.3593921661 -1.0274429321
1581 15 0.945520401 -2.1233787537
1587 15 1.2281570435 -3.86876297
1611 15 1.8848628998 -1.90858078
1617 15 1.8562088013 -1.9536848068
1623 15 1.7850837708 -1.1254405975
1629 15 1.9464826584 -0.1902961731
1635 15 2.9911966324 0.7581501007
1641 15 2.2469673157 1.9884214401
1647 15 1.7105808258 0.844288826
1653 15 0.8878183365 2.6303062439
1659 15 1.6404180527 4.3107738495
1665 15 1.8669223785 3.3415555954
1671 15 3.0669965744 1.8858938217
1677 15 4.3281421661 0.4157295227
1683 15 3.8950271606 -0.2617645264
1689 15 4.2543010712 -0.9471931458
1731 15 2.9654426575 -3.1774787903
1737 15 2.7850427628 -1.2844257355
1743 15 2.7267560959 -0.4381446838
1749 15 2.7722883224 0.2376976013
1755 15 1.3991994858 3.7900810242
1761 15 3.791911602 0.1732234955
1767 15 4.2985467911 -0.3526134491
1773 15 4.6786022186 -0.6975336075
1779 15 4.4600253105 -0.8367767334
1785 15 4.4864964485 -0.8796253204
1791 15 4.2159805298 -0.9423074722
1797 15 3.5085115433 -1.3219404221
1803 15 3.0981235504 -1.2284135818
1809 15 2.622385025 -0.9519634247
1815 15 2.2503070831 0.2776031494
1821 15 1.6995868683 1.9052734375
1827 15 0.8948478699 3.3300962448
1833 15 -0.284819603 2.9213600159
1839 15 -5.3419356346 4.7181100845
1845 15 -4.0060443878 6.7262430191
1851 15 -2.2324619293 -3.6831641197
1857 15 -3.4679851532 -3.7369384766
1863 15 -9.1623907089 -2.7384595871
1875 15 -4.9786577225 -0.5945997238
1881 15 -2.4790649414 2.5132770538
1887 15 -1.2400541306 2.8310556412
1893 15 0.061747551 3.6840362549
1899 15 1.3104724884 2.9769430161
1905 15 2.1373491287 -0.0168304443
1923 15 3.1790866852 -2.2568120956
1929 15 2.7404785156 1.26329422
1935 15 5.9395828247 -3.99010849
1941 15 2.3527011871 -0.389705658
1947 15 2.2076072693 1.2830572128
1953 15 1.9767694473 3.6975045204
1959 15 2.4622325897 6.109744072
1965 15 3.2455863953 9.1579446793
1971 15 2.5107774734 4.9059867859
1977 15 2.0344400406 2.419772625
1983 15 1.7255458832 1.7748222351
1989 15 1.4621448517 1.147652626
1995 15 1.4695291519 0.9574918747
2001 15 1.6370315552 1.0709867477
2007 15 1.6238660812 1.3400125504
2013 15 1.4483804703 1.7209215164
2019 15 1.2690134048 1.9124097824
2025 15 0.6926326752 1.5110349655
2031 15 0.1810474396 0.4471750259
2037 15 0.0012798309 -0.6786756516
2043 15 0.6629123688 -0.6779184341
2049 15 1.1668224335 1.140083313
2055 15 1.6616210938 3.6947250366
2061 15 2.0239105225 6.4098525047
2067 15 2.1132621765 7.2914509773
2073 15 1.9043235779 7.9985051155
2079 15 2.7697687149 6.8474197388
2085 15 -1.667183876 5.6997704506
2091 15 -4.6161222458 4.2442975044
2115 15 0.5478172302 2.7710294724
2121 15 3.0071935654 3.2181377411
2127 15 3.3520593643 3.7294669151
2133 15 4.0688352585 3.7644300461
2139 15 2.4219350815 2.813744545
2145 15 2.3284626007 1.8662891388
2151 15 2.7154569626 1.2068958282
2157 15 2.604593277 0.5979995728
2163 15 1.9797830582 -0.4384756088
2169 15 0.4059371948 -0.1619091034
2175 15 1.7611274719 -3.2673740387
2181 15 0.7599163055 -0.5183734894
2187 15 1.8532590866 0.0305490494
2193 15 1.7468042374 1.0105581284
2199 15 2.0701465607 1.5302648544
2205 15 2.0880069733 2.1564302444
2211 15 1.0593156815 2.5150680542
2217 15 2.2595939636 2.7274332047
207 21 1.3560857773 -7.6838626862
213 21 -2.2855787277 -6.5455131531
219 21 2.07548666 -5.906080246
225 21 4.8119487762 -6.0390558243
231 21 6.4882211685 -6.7419662476
303 21 3.5928230286 -9.2891435623
309 21 4.1765365601 -9.2698612213
315 21 4.4424314499 -9.2327518463
321 21 3.9914016724 -8.9040269852
327 21 4.1419644356 -8.6568374634
333 21 2.9057912827 -8.5789775848
339 21 1.9986658096 -8.53195858
405 21 1.7606334686 -7.6500902176
411 21 3.2260866165 -7.849032402
417 21 9.1577072144 -7.1332349777
423 21 4.2683200836 -8.9637870789
429 21 3.5156354904 -9.0018110275
435 21 3.3485059738 -9.0950069427
441 21 2.5876369476 -9.0401773453
447 21 2.3073673248 -8.721206665
453 21 1.9230165482 -8.9429740906
459 21 1.5654020309 -10.4319248199
465 21 0.5130529404 -10.3084487915
471 21 1.7918930054 -9.8980398178
477 21 1.9559345245 -10.1883764267
483 21 1.4724121094 -10.1492347717
489 21 -0.4687376022 -11.8746576309
495 21 0.9353847504 -13.570854187
501 21 0.8191690445 -13.9800930023
507 21 1.744383812 -13.7586669922
513 21 3.1503171921 -11.7552366257
519 21 3.0629110336 -10.3734016418
525 21 5.1423873901 -5.8512210846
531 21 2.8186979294 -6.4879798889
537 21 3.0000343323 -5.968462944
543 21 2.4811019897 -5.4314146042
549 21 1.9915151596 -5.6936540604
555 21 2.1160984039 -5.5126171112
561 21 2.1840906143 -5.1127309799
567 21 2.3396196365 -5.2473182678
573 21 2.4836931229 -5.3730983734
579 21 2.761100769 -5.7329072952
585 21 3.2370433807 -6.4607524872
591 21 3.5588645935 -7.1147785187
597 21 3.3913269043 -7.7120923996
603 21 2.6600999832 -7.7301673889
609 21 2.3939418793 -7.0776338577
615 21 2.474793911 -5.80331707
621 21 3.0564832687 -3.8724107742
627 21 3.3523139954 -2.568936348
633 21 3.2812438011 -2.0502986908
639 21 3.9359617233 -1.5200376511
645 21 5.2199077606 -2.1966085434
651 21 3.3737134933 -7.5874032974
657 21 7.1943063736 -5.1480207443
663 21 3.6641025543 -6.5476388931
669 21 3.0833826065 -7.5000934601
675 21 3.7892627716 -8.0626440048
681 21 2.2548017502 -7.3486671448
687 21 1.498044014 -6.1619768143
693 21 1.6181182861 -4.9581022263
699 21 1.9477424622 -4.2932538986
705 21 2.6973304749 -4.2782430649
711 21 3.1787567139 -4.7993412018
717 21 3.753578186 -5.8160543442
723 21 3.6806707382 -7.0023450851
729 21 4.4976563454 -6.2137422562
735 21 4.5381975174 -6.0536031723
741 21 4.5179858208 -5.2747945786
747 21 5.2495446205 -4.5308303833
753 21 8.1749811172 -4.6399898529
759 21 3.863822937 -4.7976503372
765 21 2.922870636 -4.984744072
771 21 0.801527977 -5.296005249
777 21 0.3013038635 -5.4081726074
783 21 1.1652698517 -4.6295661926
789 21 1.4144010544 -3.7856855392
795 21 1.2651977539 -3.2980337143
867 21 -1.264043808 -12.6628055573
879 21 -3.5099744797 -6.6813602448
885 21 -6.3784675598 -4.3310289383
891 21 0.9242858887 -3.0368909836
897 21 6.6377263069 -2.5574131012
903 21 6.2172188759 -2.4385614395
909 21 7.6300525665 -2.6545114517
915 21 4.9111280441 -3.3699064255
921 21 3.7102332115 -3.5959720612
927 21 4.4944381714 -3.8025064468
933 21 7.0377459526 -3.8460559845
939 21 4.2803573608 -3.6450538635
945 21 3.6907954216 -3.6039943695
951 21 3.3596735001 -3.3487405777
957 21 3.2291140556 -3.0136833191
963 21 2.8118848801 -3.3331375122
969 21 1.2304635048 -3.3792152405
975 21 3.6047854424 -3.3129501343
981 21 4.2296295166 -3.226316452
987 21 4.344751358 -2.5817899704
993 21 4.4140028954 -1.9497871399
999 21 3.8452243805 -1.7027664185
1005 21 3.3175549507 -1.6055593491
1011 21 3.0127358437 -1.6621923447
1017 21 2.7988920212 -1.9926357269
1023 21 2.7678699493 -2.7530097961
1029 21 3.4265589714 -4.3953456879
1035 21 4.1862010956 -5.7295627594
1041 21 10.086681366 -8.3973760605
1053 21 8.2402219772 -7.2024669647
1059 21 -2.061665535 -0.9201984406
1065 21 3.1981401443 -6.031452179
1071 21 3.1759443283 -4.7157392502
1077 21 3.3626594543 -3.7813892365
1083 21 3.6851701736 -3.2514762878
1089 21 3.6826248169 -2.9909954071
1095 21 3.6749272346 -2.9565963745
1101 21 2.9543261528 -2.9957580566
1107 21 2.5553350449 -2.6698637009
1113 21 2.924202919 -2.3848800659
1119 21 3.9723358154 -1.8479013443
1125 21 4.038107872 -1.7855424881
1131 21 3.2203407288 -1.7610845566
1137 21 2.6276082993 -1.7916917801
1143 21 2.835770607 -2.2762994766
1149 21 3.4095611572 -2.7717037201
1155 21 4.074461937 -3.0496206284
1161 21 4.4589586258 -3.2631874084
1167 21 4.3850812912 -3.4778757095
1173 21 3.8789801598 -3.5961360931
1179 21 2.9789190292 -4.7849006653
1185 21 1.2868976593 -4.8296976089
1191 21 1.5616016388 -3.68405056
1197 21 2.1398029327 -2.3826789856
1203 21 2.9109306335 -1.4253568649
1209 21 3.1337080002 -0.8438577652
1215 21 2.9607076645 -0.3074588776
1221 21 2.7014970779 0.2768669128
1227 21 2.162569046 0.1049337387
1233 21 1.9681692123 -1.7461986542
1239 21 1.9862337112 -2.86024189
1245 21 2.4369449615 -3.6284265518
1251 21 2.9416952133 -4.1138181686
1257 21 2.6785745621 -3.9312534332
1263 21 2.2207717896 -3.6487426758
1269 21 1.2792682648 -2.9569349289
1275 21 1.077706337 -2.3838224411
1281 21 1.7975921631 -2.0626726151
1287 21 2.232208252 -1.858039856
1293 21 1.941157341 -1.7659339905
1299 21 1.25822258 -1.3367729187
1305 21 1.0842409134 -0.6435050964
1311 21 0.7415781021 -0.0691413879
1317 21 -0.3372583389 0.4331274033
1329 21 3.440407753 -0.4965877533
1335 21 4.7651290894 -1.5284929276
1341 21 5.624663353 -1.8022861481
1347 21 5.1034998894 -1.5517807007
1353 21 1.9881296158 -0.3751296997
1365 21 6.0332069397 3.1466360092
1371 21 5.4667673111 3.3156890869
1377 21 5.2317228317 -1.7949371338
1383 21 4.682507515 -5.797044754
1389 21 4.2239127159 -7.1885414124
1395 21 3.302957058 -7.1924533844
1401 21 2.7405796051 -6.7692461014
1407 21 -1.2360959053 -6.8683166504
1413 21 0.8020429611 -5.1549892426
1419 21 1.6974992752 -3.4665279388
1425 21 1.1877126694 -1.7606706619
1431 21 0.8176364899 -0.8212432861
1437 21 0.5189323425 -2.0212459564
1443 21 1.733959198 -1.0720710754
1449 21 2.2500572205 -0.7564125061
1455 21 2.6021060944 -0.7758808136
1461 21 2.5855331421 -0.7599725723
1467 21 2.6182756424 -1.1681528091
1473 21 2.9789562225 -1.4010229111
1479 21 3.5211353302 -1.1583843231
1485 21 3.9930019379 -0.8707923889
1491 21 4.6896934509 -0.3818588257
1497 21 4.3610525131 0.2478523254
1503 21 3.5557208061 0.8262214661
1509 21 2.7653083801 1.2397384644
1515 21 1.8479204178 1.5452451706
1521 21 2.2301874161 1.2704362869
1527 21 2.1853485107 0.8897743225
1533 21 2.124373436 0.5003318787
1539 21 2.2182350159 0.4568395615
1545 21 2.0559015274 0.3383693695
1551 21 2.0298938751 0.3584346771
1557 21 2.062921524 0.2385206223
1563 21 1.4689369202 -0.0922870636
1569 21 1.1569366455 -0.6056966782
1575 21 1.2158298492 -1.2309236526
1581 21 1.948392868 -2.2879514694
1587 21 2.8366613388 -3.8186426163
1593 21 2.8791894913 -4.7926807404
1599 21 2.8527126312 -3.6020889282
1605 21 2.6629686356 -3.1852035522
1611 21 2.5727119446 -2.4975013733
1617 21 2.1696567535 -1.8550901413
1623 21 2.2183437347 -1.2315416336
1629 21 2.5355987549 -0.4540586472
1635 21 3.5616264343 0.1272850037
1641 21 2.8651628494 0.4414558411
1647 21 2.2961292267 0.5040302277
1653 21 1.65625 0.8906164169
1659 21 2.2773427963 1.5848245621
1665 21 2.9200229645 2.1969013214
1671 21 4.0884523392 1.382352829
1677 21 5.4558329582 0.8819761276
1683 21 5.3881874084 0.2011575699
1689 21 6.1228585243 -0.3550329208
1695 21 3.8868541718 -0.8333511353
1701 21 2.5505981445 -1.365480423
1707 21 2.0802545547 -1.2514390945
1713 21 1.7919130325 -2.0170564651
1719 21 1.8075037003 -3.1175823212
1725 21 2.2162294388 -2.4958810806
1731 21 2.7246618271 -1.9731903076
1737 21 2.4733371735 -1.3662471771
1743 21 2.2845077515 -0.0367946625
1749 21 2.6413459778 1.0206279755
1755 21 2.1614742279 1.0805826187
1761 21 3.0810508728 0.7166395187
1767 21 3.7025089264 0.3455982208
1773 21 3.8890190125 0.1482715607
1779 21 3.7831964493 -0.2539949417
1785 21 3.1922373772 -0.5328998566
1791 21 2.6082525253 -1.356259346
1797 21 2.010389328 -1.9084348679
1803 21 1.545135498 -1.9614849091
1809 21 2.1323900223 -1.4665517807
1815 21 2.272228241 -0.383190155
1821 21 2.1534471512 1.3796215057
1827 21 1.6669836044 3.3552074432
1833 21 0.8337163925 2.433514595
1839 21 0.515288353 2.5256004333
1851 21 -0.5740470886 1.6408348083
1857 21 -1.2809057236 0.417593956
1863 21 -3.9622087479 -0.6219482422
1869 21 -4.0854167938 -1.4096021652
1875 21 -2.3193731308 -1.4595222473
1881 21 -2.0430135727 -0.0914506912
1887 21 -1.8520975113 0.8624362946
1893 21 -0.3923797607 1.631942749
1899 21 0.6891784668 1.4826936722
1917 21 -4.5095529556 -5.7890758514
1923 21 0.9908723831 -4.0363531113
1929 21 0.9683074951 -3.1828317642
1935 21 1.733923912 -1.7447052002
1941 21 1.762260437 0.0335960388
1947 21 1.7568626404 1.6547985077
1953 21 1.5992155075 4.9793367386
1959 21 2.1679143906 7.582157135
1965 21 2.665851593 9.2076320648
1971 21 3.0902967453 7.6870517731
1977 21 2.2721204758 3.6737575531
1983 21 2.0201931 2.1311378479
1989 21 1.9881734848 1.2779150009
1995 21 1.9826116562 0.9615087509
2001 21 1.8924751282 0.910574913
2007 21 1.787774086 1.2533597946
2013 21 1.4582538605 2.1039323807
2019 21 0.7415685654 2.1960897446
2025 21 0.4208984375 1.892490387
2031 21 0.0236749649 1.2837839127
2037 21 -0.0226259232 0.4721984863
2043 21 0.89523983 0.0651721954
2049 21 1.7435693741 0.6331796646
2055 21 2.0264043808 2.8260650635
2061 21 2.8144512177 4.3266658783
2067 21 3.1314153671 5.1458940506
2073 21 3.5563673973 5.5470128059
2079 21 5.2511339188 4.570505619
2085 21 1.1352968216 3.5228867531
2091 21 -1.0563678741 2.4396133423
2097 21 -6.8291716576 2.242852211
2103 21 -3.2627353668 2.1863508224
2109 21 -1.7679805756 2.9983787537
2115 21 1.9097805023 3.8291387558
2121 21 3.815911293 4.7213597298
2127 21 4.0266437531 5.0543322563
2133 21 4.2485046387 4.9918632507
2139 21 2.7850093842 3.8300008774
2145 21 2.8713254929 2.5908937454
2151 21 4.1615438461 1.5644636154
2157 21 3.8889579773 1.0394306183
2163 21 3.2251853943 0.8715486526
2169 21 2.0899486542 0.3436412811
2175 21 0.9193096161 0.3115606308
2181 21 0.0142736435 0.7296676636
2187 21 1.0654659271 1.1359367371
2193 21 1.529504776 1.7942857742
2199 21 1.8482437134 2.0580434799
2205 21 1.5144729614 2.4650850296
2211 21 1.9911651611 2.7122507095
2217 21 2.5391578674 2.8274059296
2223 21 3.0808362961 2.7433042526
15 27 2.0850763321 -9.3405075073
21 27 0.3391256332 -8.8457927704
27 27 1.1859455109 -9.4084510803
33 27 1.2089033127 -9.5908956528
39 27 1.1289405823 -9.5829648972
45 27 1.6187744141 -10.4897193909
51 27 1.5385284424 -11.2550296783
57 27 1.8500175476 -11.6889333725
63 27 2.4670581818 -11.8564510345
69 27 3.1792488098 -11.7776422501
75 27 3.9479217529 -11.6875801086
81 27 4.5050420761 -11.5386953354
87 27 4.5611004829 -11.3299217224
93 27 3.9366674423 -11.0016212463
99 27 2.1550416946 -10.8270282745
105 27 0.3009462357 -10.8283014297
111 27 0.5344190598 -10.7556877136
117 27 0.321352005 -11.1827659607
123 27 -0.3914442062 -10.781252861
129 27 -0.3324813843 -9.8795175552
135 27 -1.6791286469 -11.4841766357
147 27 -0.100320816 -17.818321228
153 27 4.8061542511 -17.2798938751
159 27 3.9182295799 -13.8312282562
165 27 3.1275448799 -12.1500854492
171 27 2.5683727264 -11.6120986938
177 27 1.9544477463 -11.6406850815
183 27 1.5680150986 -11.7883119583
189 27 0.7167625427 -11.2158756256
195 27 0.9086856842 -10.2842140198
201 27 1.5521039963 -9.1257362366
207 27 1.7201023102 -7.9216327667
213 27 -0.5395393372 -7.1318893433
219 27 2.6691808701 -5.627240181
225 27 4.2586240768 -5.0436763763
231 27 5.7014503479 -5.7724714279
237 27 6.4658613205 -7.6647567749
243 27 6.4345979691 -10.5475683212
249 27 5.5595583916 -13.4130887985
255 27 4.6975002289 -15.5772609711
261 27 2.6926751137 -15.8674297333
267 27 2.7142806053 -14.500005722
273 27 2.8445520401 -12.8065023422
279 27 3.2889056206 -11.5167293549
285 27 3.0342569351 -10.5263547897
291 27 2.0498933792 -9.7181377411
297 27 2.29459095 -10.1517915726
303 27 3.1055612564 -10.1660137177
309 27 3.7853679657 -10.2100191116
315 27 4.1037883759 -10.127828598
321 27 3.8863477707 -9.5997123718
327 27 4.1296057701 -9.171339035
333 27 2.9273786545 -8.9800815582
339 27 1.9803390503 -8.9003810883
345 27 2.7779178619 -8.8967533112
351 27 3.613904953 -8.9511070251
357 27 3.7944917679 -8.901966095
363 27 3.6709656715 -8.7502241135
369 27 3.9675660133 -8.7684631348
375 27 4.136346817 -8.6867303848
381 27 4.0220546722 -8.5236263275
387 27 3.4892244339 -8.4506368637
393 27 2.9733085632 -8.153219223
399 27 1.5271921158 -7.7447767258
405 27 2.1361846924 -6.6695709229
417 27 6.659280777 -8.6576385498
423 27 3.6789889336 -9.3592233658
429 27 3.2457284927 -9.4506664276
435 27 3.2034902573 -9.4095020294
441 27 2.541592598 -9.2600898743
447 27 2.5428628922 -9.1542320251
453 27 2.536450386 -9.0383014679
459 27 2.4749660492 -9.2737445831
465 27 2.0321779251 -8.9361820221
471 27 2.7090835571 -8.9132452011
477 27 3.2435894012 -9.2151947021
483 27 2.5729799271 -9.7734117508
489 27 -0.0525579453 -11.754743576
495 27 1.6323013306 -13.5702781677
501 27 1.27663517 -17.2410526276
519 27 2.1179113388 -10.991891861
525 27 3.0953321457 -7.982588768
531 27 2.2463035583 -7.1080532074
537 27 2.6037168503 -6.6060113907
543 27 2.2964687347 -6.0326652527
549 27 2.1290578842 -6.2008256912
555 27 2.0499973297 -6.2497768402
561 27 2.3366355896 -6.1570014954
567 27 2.5022220612 -6.1215372086
573 27 2.6641025543 -6.1794786453
579 27 3.0720005035 -6.4707889557
585 27 3.2383642197 -6.9731788635
591 27 3.2222280502 -7.6170949936
597 27 2.7311306 -8.0648202896
603 27 2.0087099075 -7.824300766
609 27 1.6121149063 -7.0341978073
615 27 2.3495969772 -6.1059007645
621 27 3.7750406265 -4.9202718735
627 27 5.110291481 -3.8927745819
633 27 4.4920372963 -3.4675569534
639 27 4.2024850845 -3.5655355453
663 27 -1.9872894287 -10.5254611969
675 27 3.2589378357 -7.2511196136
681 27 2.4171600342 -6.7888278961
687 27 1.6235589981 -5.8195333481
693 27 0.7411050797 -4.6000328064
699 27 2.338388443 -4.0788631439
705 27 3.0913777351 -3.9749555588
711 27 3.7683157921 -4.4668703079
717 27 4.4302992821 -5.4816331863
723 27 4.5743699074 -6.5192213058
729 27 4.7994103432 -6.6618862152
735 27 4.4740643501 -6.377117157
741 27 4.2114229202 -5.865439415
747 27 4.1606712341 -5.1271162033
753 27 7.6053981781 -5.3156223297
777 27 1.3867959976 -6.9565563202
783 27 1.7571582794 -4.1636657715
789 27 1.5940265656 -2.7046852112
795 27 1.1450748444 -1.6423654556
801 27 0.9833154678 -2.0794963837
807 27 0.938580513 -3.1091566086
813 27 1.2369747162 -4.1668329239
819 27 2.382938385 -4.1932601929
825 27 2.9767160416 -4.1491518021
831 27 3.1179504395 -4.2172489166
837 27 3.0066804886 -4.7882156372
843 27 3.0694265366 -6.5010261536
849 27 3.9410486221 -11.8698997498
855 27 1.3046951294 -13.6704044342
861 27 -2.5004081726 -12.6016016006
867 27 -1.2878427505 -11.3214225769
873 27 -1.4685955048 -9.5105323792
879 27 -3.368642807 -7.8590364456
885 27 -4.4186439514 -5.8721218109
891 27 0.385966301 -4.2970352173
897 27 5.9033889771 -2.9324369431
903 27 5.9079818726 -2.8406887054
909 27 7.0775017738 -2.680478096
915 27 4.108584404 -3.3400230408
921 27 3.3664531708 -3.5693483353
927 27 3.7141432762 -3.8266735077
933 27 8.0532064438 -4.5212945938
939 27 4.6190152168 -3.750626564
945 27 3.7586555481 -3.8106861115
951 27 3.5164895058 -3.5465965271
957 27 3.4015221596 -3.4469270706
963 27 3.1161174774 -3.7366533279
969 27 1.6183624268 -3.8455200195
975 27 3.3194971085 -3.751537323
981 27 3.8242464066 -3.6476554871
987 27 3.882598877 -2.6569738388
993 27 3.9263415337 -1.9274349213
999 27 3.5114202499 -1.6390256882
1005 27 3.1553087234 -1.5965843201
1011 27 2.8599367142 -1.6934833527
1017 27 2.7009048462 -2.0678625107
1023 27 2.6698989868 -2.6780767441
1029 27 3.2572331429 -4.0163269043
1035 27 4.0854077339 -6.0767040253
1041 27 7.2121624947 -8.3168439865
1047 27 5.8152303696 -7.2450590134
1053 27 6.3021030426 -6.6349067688
1059 27 3.9410877228 -6.7236366272
1065 27 3.4630279541 -6.1058969498
1077 27 3.3331270218 -4.3090419769
1083 27 3.5840153694 -3.9050502777
1089 27 3.7386083603 -3.5005159378
1095 27 3.5798530579 -3.1079216003
1101 27 2.813495636 -3.1097249985
1107 27 2.8585338593 -2.6722278595
1113 27 2.9052915573 -2.6341304779
1119 27 3.6883735657 -2.7037372589
1125 27 3.1138029099 -2.757019043
1131 27 2.4385681152 -2.8336181641
1137 27 1.8442087173 -2.7925024033
1143 27 2.3459835052 -3.10866642
1149 27 3.2006773949 -3.661067009
1155 27 4.0305519104 -3.6118898392
1161 27 4.5053772926 -3.4977083206
1167 27 4.5890860558 -3.2997961044
1173 27 4.1884589195 -3.0579957962
1179 27 3.4649791718 -3.599729538
1185 27 1.5281276703 -3.6261234283
1191 27 1.866560936 -3.0743179321
1197 27 2.0875787735 -2.2548160553
1203 27 2.5759315491 -1.4097509384
1215 27 3.01948452 -0.4697694778
1221 27 3.5690326691 -0.3350496292
1227 27 2.5074625015 -0.8015775681
1233 27 2.3259906769 -1.6397228241
1239 27 2.1766805649 -2.5255060196
1245 27 2.327712059 -3.103017807
1251 27 2.9837379456 -3.4184236526
1257 27 2.6088466644 -3.5097322464
1263 27 1.8780813217 -3.7911472321
1269 27 0.8607530594 -2.7081546783
1275 27 0.6339550018 -1.6526842117
1281 27 1.2069358826 -1.7240619659
1287 27 1.504070282 -1.9028768539
1293 27 0.8454780579 -2.2035951614
1299 27 -0.4557981491 -2.0357351303
1305 27 -1.155497551 -1.2854099274
1311 27 -0.2461204529 -0.1043834686
1317 27 -0.6233491898 1.2095441818
1329 27 2.7512331009 0.935500145
1335 27 4.1726579666 -0.3188171387
1341 27 5.6565179825 -1.339173317
1347 27 4.2867350578 -1.5646457672
1353 27 1.4489274025 -0.9578285217
1359 27 -3.4131846428 0.2677822113
1365 27 6.726067543 5.9940013885
1371 27 6.0494914055 6.0512447357
1383 27 4.2489128113 -8.7823905945
1389 27 3.3674974442 -7.3346405029
1395 27 2.4747123718 -6.6546010971
1401 27 0.5549373627 -5.6056318283
1407 27 0.8530712128 -4.5336771011
1413 27 4.9747724533 -3.037071228
1419 27 1.7292709351 -2.098947525
1425 27 0.9582414627 -1.4050035477
1431 27 1.1065979004 -1.301618576
1437 27 1.3808345795 -1.6052246094
1443 27 1.55909729 -1.6736154556
1449 27 1.3100967407 -1.5781402588
1455 27 0.9705076218 -1.7820234299
1461 27 0.9789943695 -1.5507659912
1467 27 1.8374347687 -1.817647934
1473 27 2.4895534515 -2.0601873398
1479 27 4.2386856079 -1.8428058624
1485 27 3.6447439194 -1.5913972855
1491 27 4.1265945435 -1.0003175735
1497 27 4.0060386658 -0.1819114685
1503 27 2.782866478 0.6626615524
1509 27 1.9365177155 1.8310995102
1515 27 1.2387046814 3.6162576675
1521 27 1.2889261246 3.3205490112
1527 27 1.1385774612 2.0087223053
1533 27 1.0412654877 1.5308160782
1539 27 1.193655014 1.5040769577
1545 27 1.5955276489 1.2355041504
1551 27 2.0029335022 0.7870025635
1557 27 2.1151418686 0.1883687973
1563 27 1.6890563965 -0.3174238205
1569 27 1.6238965988 -0.8065385818
1575 27 2.1510782242 -1.3472070694
1581 27 3.9987249374 -2.0376367569
1587 27 3.9510788918 -2.6395606995
1593 27 3.8551044464 -3.0388469696
1599 27 3.5642404556 -2.9367275238
1605 27 3.3213586807 -2.6746463776
1611 27 3.1347417831 -2.0198659897
1617 27 2.6028308868 -1.5921373367
1623 27 2.5031023026 -1.1526727676
1629 27 2.7520189285 -0.655371666
1635 27 3.2127552032 -0.0601434708
1641 27 2.8263645172 -0.765668869
1647 27 2.3483581543 -0.4508047104
1653 27 1.8477983475 0.19298172
1659 27 2.6245698929 0.9106502533
1665 27 3.2681388855 1.5327510834
1671 27 4.6479325294 4.4712409973
1677 27 6.4533820152 4.0871114731
1683 27 6.3045320511 1.3004465103
1689 27 7.2337255478 -0.2481193542
1695 27 4.173766613 -0.6604671478
1701 27 2.5675420761 -1.3608465195
1707 27 2.0840082169 -1.9964056015
1713 27 1.8689193726 -2.5537023544
1719 27 1.7431850433 -3.1286935806
1725 27 1.9846897125 -2.6942243576
1731 27 2.3098621368 -1.8720941544
1737 27 2.1848249435 -1.430439949
1743 27 1.809841156 0.3970451355
1749 27 0.4052114487 -3.6443629265
1755 27 0.5567321777 -2.748896122
1761 27 2.4556903839 1.9035968781
1767 27 3.0580444336 1.3110198975
1773 27 2.3682365417 1.6080236435
1779 27 2.6072320938 0.0028591156
1785 27 2.2251710892 -0.8378047943
1791 27 -2.9009203911 -4.2542514801
1797 27 0.3684988022 -2.4748392105
1803 27 -0.1247329712 -2.5190906525
1809 27 2.122961998 -2.0390853882
1815 27 2.9837751389 -1.0759410858
1821 27 2.8841733932 0.0675182343
1827 27 2.243932724 1.4044437408
1833 27 1.506644249 0.9999065399
1839 27 1.6299829483 -0.9545536041
1845 27 1.1402540207 5.2615880966
1851 27 0.7490825653 5.1508178711
1857 27 0.028386116 2.2474002838
1863 27 -0.0323543549 0.486741066
1869 27 -0.7911233902 -0.8238325119
1875 27 -0.6813077927 -1.9368772507
1881 27 -0.427397728 -1.5280666351
1887 27 0.1585407257 -2.0448312759
1893 27 0.5987949371 -1.3137655258
1899 27 1.1167993546 2.0194959641
1905 27 0.9848814011 0.4194812775
1911 27 1.0814332962 -1.6525993347
1917 27 -2.2797899246 -3.2372407913
1923 27 0.1984949112 -1.5159511566
1929 27 0.1921367645 -1.1258506775
1935 27 1.0843982697 -0.5215473175
1941 27 1.603228569 0.3930978775
1947 27 1.8868484497 1.9033060074
1953 27 1.5035276413 5.3288879395
1959 27 3.7393169403 5.5854473114
1977 27 6.1182317734 3.6615581512
1983 27 2.283946991 2.2797641754
1989 27 2.1209402084 1.4389123917
1995 27 2.5244455338 0.7899847031
2001 27 2.3476085663 0.4770812988
2007 27 1.9765110016 0.7149791718
2013 27 1.4467144012 1.5600948334
2019 27 1.1118202209 1.8211889267
2025 27 0.8042430878 1.7728290558
2031 27 0.1744279861 1.6145935059
2037 27 0.071844101 1.0958299637
2043 27 1.1598472595 0.9715862274
2049 27 2.2868785858 1.131439209
2055 27 2.9223937988 1.737159729
2061 27 3.7609624863 2.4203519821
2067 27 3.872648716 3.4205617905
2073 27 3.9492025375 4.0810937881
2079 27 4.1755003929 3.4367609024
2085 27 2.2166929245 2.0578861237
2091 27 0.5153303146 1.1017627716
2097 27 3.0301599503 1.1473445892
2103 27 -0.2590684891 1.0509262085
2109 27 1.0431909561 2.424325943
2115 27 2.8051366806 3.9529314041
2121 27 4.6944770813 5.4168276787
2127 27 4.0802955627 5.9685025215
2133 27 2.8809223175 5.2968525887
2139 27 1.8177919388 3.9008822441
2145 27 2.7171239853 2.5607671738
2151 27 4.1258025169 1.488609314
2157 27 4.0370178223 1.0406332016
2163 27 3.6506156921 0.9139022827
2169 27 2.565290451 0.9667720795
2175 27 1.1854352951 1.2065238953
2181 27 -0.5015640259 1.612991333
2187 27 1.1434431076 1.9077224731
2193 27 1.4330282211 2.216422081
2199 27 1.7144651413 2.272313118
2205 27 1.6747970581 2.4830656052
2211 27 2.0882844925 2.6547651291
2217 27 2.7562789917 2.7712039948
2223 27 2.963104248 2.7585477829
15 33 2.9773330688 -9.4318914413
21 33 2.0491399765 -9.4747257233
27 33 1.9433174133 -9.3315267563
33 33 1.9786806107 -9.5847616196
39 33 2.1623058319 -9.9889745712
45 33 2.377117157 -10.6243801117
51 33 1.9508476257 -11.5417432785
57 33 2.0530843735 -12.04621315
63 33 2.8224534988 -12.1007432938
69 33 3.6181497574 -11.7912559509
75 33 4.7944130898 -11.4918222427
81 33 5.1705207825 -11.1749954224
87 33 5.4983201027 -10.8666992188
93 33 4.3646011353 -10.6405725479
99 33 3.0530309677 -10.5434932709
105 33 2.3516578674 -10.5585575104
111 33 2.0018062592 -10.5821065903
117 33 2.1015195847 -10.765039444
123 33 1.7841758728 -10.4295473099
129 33 1.3186750412 -7.052072525
135 33 6.4701099396 -8.031419754
153 33 2.2012901306 -14.8795166016
159 33 1.784825325 -13.9240140915
165 33 0.8942222595 -12.7619199753
171 33 0.9847831726 -12.3779888153
177 33 0.7943649292 -12.7587089539
183 33 0.4420890808 -12.5583791733
189 33 -0.2288198471 -11.5956230164
195 33 0.837053299 -10.8430461884
201 33 1.8997879028 -8.7970323563
207 33 2.1747045517 -7.3488540649
213 33 1.0798482895 -5.9015645981
219 33 2.7155513763 -4.4811677933
225 33 4.124958992 -3.7843828201
231 33 5.1662979126 -4.0452671051
237 33 5.6837720871 -5.5880851746
243 33 5.7473239899 -8.9314861298
249 33 5.5635576248 -13.1606731415
255 33 5.1035699844 -14.920759201
261 33 3.7037696838 -15.7426300049
267 33 2.9301967621 -13.5606641769
273 33 3.1286821365 -12.2433404922
279 33 3.5347709656 -11.2467622757
285 33 3.3157320023 -10.6985454559
291 33 2.732134819 -10.4854536057
297 33 2.5153961182 -10.7531671524
303 33 2.7281904221 -11.2233400345
309 33 3.1445741653 -11.2074556351
315 33 3.4393701553 -11.0477371216
321 33 3.4814472198 -10.2039527893
327 33 4.4775514603 -9.6739082336
333 33 2.6330699921 -9.4415740967
339 33 1.9305458069 -9.3699703217
345 33 2.8288650513 -9.4872016907
351 33 3.8772239685 -9.6202583313
357 33 3.9433317184 -9.3243217468
363 33 3.8579716682 -8.8876514435