TITLE = "B00007"
VARIABLES = "x", "y", "displacement-x", "displacement-y"
ZONE T="Frame 0", I=374, J=300, F=POINT
279 15 1.2718877792 -5.0848608017
285 15 0.9549455643 -7.5439343452
291 15 -0.4717783928 -10.8192157745
471 15 1.242893219 -9.4158744812
477 15 4.2565546036 -9.438791275
483 15 -1.8444242477 -3.904841423
489 15 -1.387178421 2.221909523
495 15 -2.4691982269 -0.9513845444
501 15 -0.7235774994 -4.3582172394
507 15 0.5722904205 -7.8867282867
513 15 2.1718921661 -8.7806110382
1023 15 0.8107004166 -2.0676965714
1029 15 0.7884454727 -1.877243042
1137 15 9.7383880615 -4.4737873077
1143 15 5.8601593971 -4.2439508438
1149 15 6.4961752892 -4.6544589996
1155 15 6.660302639 -4.9416246414
1161 15 6.7391204834 -4.9175853729
1167 15 6.5182614326 -4.6139307022
1173 15 6.6794505119 -3.8580493927
1179 15 6.0621032715 -3.3760662079
1185 15 4.9687595367 -2.9383468628
1191 15 4.2206869125 -2.8111362457
1197 15 3.7674007416 -2.9143018723
1203 15 1.4586105347 -2.8074922562
1209 15 2.9902229309 -4.0785665512
1287 15 9.4418210983 -2.345249176
1293 15 12.2628278732 -6.2799506187
1305 15 4.0094795227 2.7667827606
1317 15 0.8592996597 7.045645237
1323 15 -0.4197731018 9.5078229904
1329 15 2.1722545624 10.1114702225
1335 15 3.5481281281 9.6865758896
1341 15 4.0570936203 9.0052709579
1347 15 4.4467048645 7.9056630135
1353 15 2.6230573654 6.6186718941
1359 15 1.0282917023 4.1995573044
1365 15 0.3056869507 0.5761175156
1485 15 2.8588695526 -1.7337846756
1491 15 4.5041871071 -0.9167985916
1563 15 -1.29774189 -2.5586538315
1569 15 -0.9545583725 -2.0021352768
1575 15 1.5423793793 -1.0868501663
1581 15 4.83172369 0.5677490234
1587 15 6.5435094833 2.3902521133
1593 15 6.7634506226 3.1669960022
1599 15 5.2415571213 1.6707553864
1605 15 2.7070188522 -0.6702098846
1743 15 3.6639370918 -0.1040267944
1749 15 2.4457054138 3.8622941971
1761 15 2.2232055664 1.7887306213
1767 15 2.4151134491 0.7641992569
1773 15 0.8246250153 -0.116232872
1779 15 2.4549560547 -1.0301275253
1785 15 2.9026660919 -1.6483335495
1791 15 7.7304077148 -2.4175777435
1797 15 5.8188533783 -3.5647945404
1803 15 5.1155605316 -4.8412246704
1809 15 9.1581707001 2.8930997849
1815 15 5.4530081749 -1.0717716217
1821 15 5.5151166916 -0.542971611
1827 15 5.4908914566 -1.1053600311
1833 15 5.5887384415 -1.9455814362
1839 15 5.7653446198 -2.1439094543
1947 15 5.0021262169 -0.8432149887
1953 15 4.8057570457 -0.3231925964
1959 15 4.4227771759 -0.5864934921
1965 15 4.0334568024 -1.0417604446
1971 15 -1.3989095688 -1.954577446
1977 15 0.1354932785 -1.7048845291
1983 15 -0.69069767 -0.6466655731
1989 15 -0.9382591248 -0.9228973389
1995 15 -0.6249790192 -1.8550806046
2001 15 0.8626213074 -2.6112613678
2007 15 1.9633769989 -3.0773019791
2013 15 3.0016355515 -3.1272268295
2019 15 2.9291343689 -2.6373434067
2025 15 2.5106477737 -2.8901605606
2031 15 1.8135309219 -4.3832244873
2037 15 1.4388122559 -4.4549741745
2043 15 5.9778442383 -6.7340230942
2049 15 1.2770662308 -1.8489933014
2055 15 0.5092096329 1.2297973633
2061 15 -0.0455961227 3.8360834122
2067 15 -0.1059017181 5.3115262985
2073 15 -0.8087043762 5.9106926918
2079 15 -1.8769407272 5.8950791359
2085 15 -2.8318090439 5.6262531281
2103 15 0.3127222061 9.7308750153
2115 15 -7.1447553635 5.7377386093
2121 15 -10.5676708221 -6.2698860168
2175 15 6.0298852921 -1.9792709351
2181 15 6.8336033821 -1.8983039856
2187 15 7.4825763702 -1.6818437576
2193 15 6.5374016762 -1.0704660416
2199 15 6.0695233345 -0.4925680161
2205 15 6.2216663361 0.5823974609
2211 15 7.0276908875 1.0416193008
2217 15 6.0805811882 0.9628076553
2223 15 4.6768574715 0.5140275955
267 21 -3.7399859428 -8.4130535126
273 21 -2.3159456253 -7.8976912498
279 21 -2.118979454 -10.0399513245
285 21 -0.9943294525 -11.5394687653
291 21 -1.8850440979 -13.7657089233
297 21 0.2693605423 -12.2265310287
303 21 3.2989988327 -13.8589391708
309 21 5.5037670135 -15.3416194916
429 21 0.4322013855 -7.650809288
435 21 1.2864704132 -5.7801675797
441 21 0.5359630585 -4.6583461761
447 21 -0.3479280472 -4.6335115433
453 21 -1.476723671 -5.9070749283
459 21 -2.6086654663 -7.6080179214
465 21 -3.0876598358 -9.7229995728
471 21 -1.2111463547 -10.7570333481
477 21 4.9497928619 -10.0932159424
483 21 -0.1254205704 -6.7484445572
489 21 -3.3051309586 0.2290592194
495 21 -1.5132217407 -5.5667362213
501 21 -0.2480869293 -6.8297071457
507 21 1.2320652008 -8.1924467087
513 21 2.7891187668 -8.634270668
519 21 1.1428346634 -8.5868635178
525 21 -0.3455038071 -7.9665937424
531 21 -2.03677845 -6.3447847366
537 21 -2.3446884155 -5.7441482544
543 21 -2.2492856979 -4.9672851563
549 21 -1.9743032455 -6.0892190933
555 21 -2.2586450577 -6.9651832581
561 21 -2.0160894394 -7.7550907135
567 21 -1.9717960358 -8.1725578308
573 21 -1.8065414429 -8.4614944458
579 21 -1.2072973251 -8.8722267151
585 21 -0.0483455658 -9.2326383591
591 21 1.435997963 -9.4940834045
597 21 3.1969604492 -9.553150177
603 21 5.4386577606 -9.2769851685
609 21 5.6159763336 -8.9044589996
615 21 2.0735960007 -8.7110147476
621 21 2.3827457428 -8.4964666367
627 21 2.3095626831 -8.3182659149
633 21 2.4473562241 -8.3926095963
639 21 2.5079421997 -8.3983039856
645 21 3.4521713257 -9.2926454544
651 21 2.4048652649 -8.758020401
657 21 2.3583040237 -8.5619249344
663 21 1.9756345749 -8.665143013
705 21 -2.7945728302 -11.8831329346
711 21 1.0409851074 -9.7368021011
717 21 1.636929512 -10.5457801819
723 21 2.0279502869 -12.0575466156
729 21 5.4100065231 -9.2367486954
735 21 2.3015403748 -8.7484912872
741 21 1.8604917526 -7.9595308304
747 21 2.2242145538 -7.431312561
753 21 2.5011444092 -7.1800298691
759 21 1.3521184921 -7.123380661
765 21 1.0847902298 -7.0828495026
771 21 1.4687166214 -6.9828166962
777 21 1.523059845 -6.6926813126
783 21 1.7703113556 -6.0537109375
789 21 1.6967067719 -5.6421813965
795 21 1.4127893448 -5.7094631195
957 21 1.1648788452 -9.6600055695
963 21 -0.8947029114 -8.2539157867
969 21 -1.2945556641 -7.5588722229
975 21 -1.8336400986 -6.5422067642
987 21 1.0759181976 -5.5348911285
993 21 1.7195510864 -6.4447126389
999 21 1.6523447037 -6.6434259415
1005 21 1.290599823 -6.068315506
1011 21 1.0624418259 -4.5925741196
1017 21 1.5283098221 -3.179605484
1023 21 1.8549585342 -2.0303087234
1029 21 1.7181110382 -0.8553104401
1035 21 1.4728021622 -1.5804328918
1041 21 0.891705513 -3.6279249191
1047 21 0.5836544037 -4.8743648529
1053 21 1.2772874832 -5.8934106827
1059 21 1.6105537415 -6.7342767715
1065 21 1.1798019409 -6.3844537735
1071 21 2.0143880844 -5.6611967087
1083 21 4.8473057747 -4.5263872147
1089 21 4.9685688019 -4.7788915634
1095 21 4.9793438911 -5.5554418564
1101 21 4.1698389053 -6.602856636
1107 21 3.3941040039 -7.6040201187
1113 21 3.0221538544 -7.757226944
1119 21 8.9158716202 -9.1240682602
1125 21 5.936088562 -7.4073810577
1131 21 3.2515363693 -5.2102918625
1137 21 3.6924033165 -4.9674501419
1143 21 4.8202390671 -5.4667949677
1149 21 5.6345543861 -6.3551502228
1155 21 5.9921584129 -7.2138671875
1161 21 6.3195357323 -7.4024677277
1167 21 5.9927229881 -7.0834245682
1173 21 5.6353445053 -6.1138553619
1179 21 4.9900684357 -5.1874666214
1185 21 3.8149371147 -4.6383371353
1191 21 3.4693317413 -4.2940263748
1197 21 3.3515863419 -4.2947511673
1203 21 1.4428110123 -4.8193645477
1209 21 2.9526247978 -5.5812110901
1215 21 3.8694972992 -6.0268564224
1221 21 4.5372080803 -7.0939102173
1227 21 5.0112509727 -8.4169082642
1239 21 3.461233139 -10.2969894409
1245 21 4.9519577026 -12.8480033875
1251 21 2.7414588928 -11.5342140198
1257 21 2.739613533 -7.1204786301
1263 21 3.3429632187 -5.7029190063
1269 21 4.5501084328 -4.6487464905
1275 21 5.5160918236 -3.8280315399
1281 21 6.2316827774 -3.247844696
1287 21 5.9051923752 -2.9425773621
1293 21 3.7669124603 -2.591547966
1299 21 -0.5841655731 -2.3044252396
1305 21 -1.1777210236 -1.3886547089
1311 21 -1.7297964096 0.5180892944
1317 21 -1.9217014313 3.6260948181
1323 21 -2.1436510086 6.0108780861
1329 21 0.6325845718 6.9873352051
1335 21 2.4250192642 7.2836070061
1341 21 3.2821712494 7.2591509819
1347 21 3.8942365646 7.0911221504
1353 21 2.4816207886 6.7343997955
1359 21 1.1260433197 4.6014137268
1365 21 0.6287136078 1.8757686615
1371 21 1.7301416397 -0.7140989304
1377 21 3.4771032333 -2.5145750046
1383 21 5.1552157402 -3.444478035
1389 21 8.5413475037 -4.0259590149
1443 21 2.0592823029 -5.4075660706
1449 21 3.2207932472 -5.0479040146
1455 21 5.4843525887 -4.2751893997
1461 21 4.5699591637 -3.4930009842
1467 21 -0.2721157074 -1.0524902344
1479 21 2.4396800995 -4.040594101
1485 21 3.0583958626 -1.7887277603
1491 21 4.4421281815 -0.6394834518
1497 21 5.2027826309 -0.0378675461
1503 21 3.5520524979 0.9445037842
1509 21 2.4615650177 0.5878829956
1515 21 1.5728931427 -0.2938899994
1521 21 2.2103919983 -1.8679838181
1527 21 3.7748799324 -3.5000171661
1533 21 4.7522950172 -4.5266027451
1539 21 6.6693191528 -4.6605110168
1545 21 4.6155614853 -4.6109046936
1551 21 2.1905164719 -3.9793243408
1557 21 -0.0050134659 -3.8034420013
1563 21 -2.8712396622 -3.570476532
1569 21 -4.2237792015 -3.138094902
1575 21 1.1397247314 -2.2297563553
1581 21 5.0821084976 -0.0894994736
1587 21 7.3802223206 3.2086372375
1593 21 9.6729927063 6.4758815765
1599 21 6.28373909 2.1887903214
1605 21 3.0270218849 0.1062498093
1611 21 2.2308578491 -1.3615140915
1617 21 2.8872928619 -1.775015831
1623 21 2.0248947144 -2.1437549591
1629 21 2.3503170013 -2.6296710968
1635 21 2.7293405533 -3.6147737503
1641 21 2.9562253952 -4.0286569595
1647 21 2.9219560623 -3.882651329
1653 21 3.0338220596 -3.2152729034
1659 21 3.062748909 -2.2574253082
1665 21 3.6558046341 -0.3941440582
1671 21 5.5352597237 0.2714271545
1677 21 5.8147320747 -0.0780448914
1683 21 4.2934589386 -1.2063064575
1689 21 6.6894264221 -5.7324676514
1713 21 5.3868765831 -7.096116066
1719 21 5.7672286034 -7.3316955566
1725 21 5.6989598274 -6.9147882462
1731 21 5.7942557335 -5.123260498
1737 21 4.6658740044 -2.4974269867
1743 21 2.1414031982 0.1557645798
1749 21 3.1254272461 1.7454376221
1755 21 2.6259288788 2.3092327118
1761 21 2.8958950043 1.0924282074
1767 21 3.2483110428 0.3209095001
1773 21 2.7640810013 -0.3791742325
1779 21 2.9630036354 -0.8156309128
1785 21 3.1049394608 -1.1393899918
1791 21 4.2921376228 -1.0058879852
1797 21 5.2761106491 -1.3158845901
1803 21 4.932718277 -1.3512401581
1809 21 4.822663784 -0.7023248672
1815 21 4.7389388084 -0.5764770508
1821 21 5.111559391 -0.4472494125
1827 21 5.1479296684 -1.382818222
1833 21 5.1038179398 -2.2192564011
1839 21 5.249373436 -2.7028560638
1845 21 6.2958917618 -2.5934524536
1851 21 5.5347981453 -2.3628368378
1857 21 4.9952731133 -1.9749307632
1863 21 4.4971747398 -2.0319347382
1869 21 3.8769249916 -1.4717464447
1875 21 3.1457891464 -0.2106342316
1881 21 1.2862539291 1.9330148697
1893 21 4.5647273064 -3.7551078796
1899 21 4.0760440826 -4.2079334259
1905 21 3.8926563263 -2.6878662109
1911 21 3.2219552994 -3.5226888657
1917 21 3.3065633774 -3.7350072861
1923 21 4.0489768982 -3.6421899796
1929 21 3.8088526726 -3.8989629745
1935 21 3.8614091873 -4.5319061279
1941 21 4.6888647079 -1.4468765259
1947 21 5.5042181015 -0.0394525528
1953 21 5.9450330734 -0.3558521271
1959 21 6.3782987595 -1.0425691605
1965 21 9.6645708084 -4.2773523331
1971 21 2.9988822937 -1.5529766083
1977 21 2.4569101334 -1.2277679443
1983 21 1.4552679062 -1.0777492523
1989 21 0.3884773254 -1.3896865845
1995 21 0.2178487778 -2.5454187393
2001 21 1.1262025833 -3.4839696884
2007 21 2.0586633682 -3.962682724
2013 21 3.4553585052 -4.2131633759
2019 21 3.6416578293 -3.97290802
2031 21 0.7823371887 -4.1394901276
2043 21 -2.1050310135 -3.9219608307
2049 21 0.3473825455 -2.1437339783
2055 21 0.276227951 0.4894781113
2061 21 0.3691225052 2.4328584671
2067 21 0.7052679062 3.3609113693
2073 21 0.3426561356 2.8612203598
2079 21 -0.2506227493 1.5741252899
2085 21 -1.0014038086 0.752450943
2091 21 -1.5146284103 5.0001564026
2097 21 -0.4297485352 5.1619052887
2103 21 3.0558080673 5.1287403107
2115 21 -8.6504096985 3.5105457306
2121 21 1.3747472763 -2.4475021362
2145 21 1.0534362793 -10.2146482468
2151 21 2.4565162659 -8.3123188019
2157 21 3.5121068954 -4.4309844971
2163 21 4.7473182678 -3.4032878876
2169 21 5.6319966316 -2.8876132965
2175 21 6.714196682 -2.776061058
2181 21 7.3710627556 -2.7026576996
2187 21 7.00431633 -2.3278522491
2193 21 6.467508316 -1.6885194778
2199 21 5.685277462 -0.7038764954
2205 21 5.6528563499 0.5944433212
2211 21 6.4701337814 0.9838190079
2217 21 6.0487957001 0.8440246582
2223 21 4.7960653305 0.2557945251
33 27 -0.5357627869 -11.3662252426
39 27 0.9682722092 -12.1501169205
45 27 1.2214984894 -12.4729061127
51 27 0.761967659 -13.0356044769
57 27 1.2467041016 -13.2920188904
63 27 1.2212333679 -13.4407491684
69 27 0.7415590286 -13.9049901962
75 27 1.11723423 -14.270406723
81 27 2.0803174973 -13.9323606491
87 27 3.7101211548 -12.8894290924
93 27 4.154671669 -11.7607908249
99 27 3.5783877373 -11.1432723999
105 27 2.4332065582 -10.3377456665
111 27 -0.3018798828 -13.0637693405
117 27 0.3463001251 -15.3690385818
123 27 2.075717926 -14.9024658203
129 27 0.7577075958 -17.0821208954
135 27 2.1496868134 -13.3677272797
141 27 -0.0428171158 -14.5200185776
147 27 -0.1326217651 -13.3501682281
153 27 -0.2840499878 -12.592048645
159 27 -0.3417987823 -11.9905910492
165 27 -0.7832193375 -11.9878997803
171 27 1.8401031494 -12.1704559326
249 27 -2.884475708 -2.9418468475
273 27 -2.017531395 -12.027923584
279 27 -2.1157312393 -12.1657648087
285 27 -1.0338783264 -12.6456565857
291 27 -2.2356443405 -12.6735095978
297 27 -1.9240064621 -11.8988819122
303 27 1.1295986176 -13.0619306564
309 27 2.3702106476 -13.4982032776
315 27 3.4231004715 -14.322177887
321 27 3.6475434303 -12.5044364929
327 27 3.6144366264 -12.4467096329
333 27 3.9576892853 -12.6696043015
339 27 3.516623497 -13.2972383499
345 27 2.6505146027 -16.4923152924
351 27 2.1160449982 -15.661272049
357 27 1.6081466675 -14.251750946
363 27 0.1204652786 -13.9397144318
369 27 -0.574587822 -13.2301025391
375 27 -0.5858755112 -12.6192331314
381 27 0.2835006714 -12.0819311142
387 27 0.8060464859 -12.3237934113
393 27 0.0567073822 -12.7526865005
399 27 -1.1526851654 -13.7171764374
405 27 -2.6573038101 -14.9026536942
411 27 -2.2081136703 -15.463552475
417 27 -2.1685209274 -14.7474374771
423 27 -1.2535514832 -11.8330802917
429 27 -0.6852483749 -8.4608421326
435 27 -0.0893554688 -6.2648944855
441 27 0.2573413849 -5.1467113495
447 27 -0.1595201492 -5.1260175705
453 27 -0.6590023041 -3.7887029648
459 27 -1.5707597733 -8.0956392288
465 27 -1.5570831299 -10.3260583878
471 27 0.5882434845 -12.3287858963
477 27 4.9098901749 -12.6795606613
483 27 1.1785430908 -8.981420517
489 27 -1.9573106766 -5.7066135406
495 27 -1.5216531754 -7.1836767197
501 27 0.3240184784 -8.325712204
507 27 1.7185344696 -9.8960294724
513 27 2.6618442535 -10.1231307983
519 27 1.7591047287 -10.3292512894
525 27 0.0206041336 -8.7397193909
531 27 -1.9280948639 -7.3583164215
537 27 -1.8363485336 -6.5625019073
543 27 -1.6544923782 -5.9172410965
549 27 -1.2145528793 -7.724978447
555 27 -1.2600679398 -8.7724924088
561 27 -1.058016777 -9.2069578171
567 27 -0.8389081955 -9.3467197418
573 27 -0.8745203018 -9.4257898331
579 27 0.0568876266 -9.6213283539
585 27 1.0400075912 -9.7798595428
591 27 2.3067302704 -9.8135251999
597 27 3.7478795052 -9.8522987366
603 27 5.7117476463 -9.3904027939
609 27 5.1607513428 -9.2565736771
615 27 1.0067577362 -9.3809013367
621 27 3.5605430603 -9.0972537994
627 27 3.3502006531 -8.7712450027
633 27 2.8810901642 -8.710111618
639 27 2.5575618744 -8.7300195694
645 27 3.2050552368 -9.5476503372
651 27 2.6222019196 -8.4365911484
657 27 2.9911766052 -8.1410388947
663 27 3.1181983948 -8.2509422302
669 27 3.8580875397 -8.8743743896
675 27 2.6215009689 -9.5142822266
681 27 2.8313903809 -10.2331781387
687 27 2.7314090729 -10.6456842422
693 27 1.5252761841 -10.3395528793
699 27 1.2708387375 -10.1653995514
705 27 0.9142074585 -9.9863166809
711 27 1.3668460846 -9.7189483643
717 27 1.9736280441 -9.8859844208
723 27 2.5457248688 -10.4127550125
729 27 4.0897140503 -9.7773389816
735 27 3.2073483467 -9.3210840225
741 27 2.4785003662 -8.503911972
747 27 1.9076490402 -8.0295000076
753 27 2.1016931534 -8.0714092255
759 27 -0.5727157593 -8.51375103
765 27 -0.0513744354 -8.5395946503
771 27 0.9772148132 -8.5055761337
777 27 1.559384346 -8.1309242249
783 27 1.9420509338 -2.303144455
795 27 2.3553295135 -2.2930612564
801 27 1.8157405853 -5.1919689178
807 27 2.2764854431 -5.6993951797
813 27 4.2657899857 -5.9868869781
819 27 2.3995923996 -5.2652606964
825 27 2.2923650742 -4.1642007828
831 27 1.990650177 -3.7714471817
837 27 2.3973121643 -5.0357732773
843 27 2.6229934692 -6.6393222809
849 27 3.2615480423 -8.3569059372
855 27 0.9934921265 -9.3613996506
873 27 3.0812969208 -9.5434713364
879 27 5.0523958206 -9.4289808273
915 27 -2.555803299 -12.08365345
921 27 -0.2938728333 -10.6970796585
927 27 0.9146223068 -8.9462461472
933 27 2.9655094147 -8.0824804306
939 27 2.3016700745 -12.2646369934
945 27 2.2771806717 -10.7044200897
951 27 2.2245845795 -9.2392339706
957 27 1.9461669922 -9.1384849548
963 27 -0.5029840469 -8.8197507858
969 27 -1.5296134949 -8.1105279922
975 27 -0.6255683899 -7.2426176071
981 27 0.5470151901 -5.0504379272
987 27 1.146270752 -4.7662506104
993 27 1.9517431259 -7.008061409
999 27 2.2515058517 -7.6396989822
1005 27 2.0111351013 -6.5805578232
1011 27 2.2379350662 -5.1970596313
1017 27 2.5585622787 -3.9225683212
1023 27 2.9260225296 -3.1570386887
1029 27 2.728102684 -2.5667037964
1035 27 2.2591733932 -3.0029067993
1041 27 1.8115091324 -4.1409225464
1047 27 0.9055328369 -5.482211113
1053 27 1.8554115295 -6.4750375748
1059 27 1.8586044312 -7.3096551895
1065 27 -1.5364193916 -6.4813270569
1071 27 2.1835250854 -6.3068151474
1077 27 4.4962983131 -7.5898456573
1083 27 4.5169382095 -4.8479347229
1089 27 6.0103549957 -4.7138528824
1095 27 5.345105648 -5.0159521103
1101 27 4.4537220001 -6.2031383514
1107 27 3.6745138168 -7.4819107056
1113 27 3.1981658936 -7.6526794434
1125 27 2.4427442551 -6.7278575897
1131 27 2.0510015488 -6.1116247177
1137 27 1.8088026047 -5.8865690231
1143 27 3.8713145256 -6.4003267288
1149 27 4.7060513496 -7.5790891647
1155 27 5.2932338715 -8.9086389542
1161 27 7.5316061974 -11.2178087234
1167 27 5.3097763062 -8.9798669815
1173 27 4.7486476898 -6.8036184311
1179 27 4.2562432289 -5.6122913361
1185 27 2.3360853195 -4.7192630768
1191 27 2.9490594864 -4.6494064331
1197 27 3.0489115715 -4.8784646988
1203 27 1.2097406387 -5.1422290802
1209 27 2.3255701065 -5.6724710464
1215 27 4.119705677 -6.3366107941
1221 27 4.843811512 -7.6289834976
1227 27 7.4097547531 -10.9779272079
1233 27 10.6113872528 -15.1686706543
1239 27 4.2062368393 -10.0789346695
1245 27 3.2786817551 -9.1238508224
1251 27 2.7279553413 -7.922246933
1257 27 3.4217185974 -6.917927742
1263 27 3.8321738243 -5.7078828812
1269 27 4.6665711403 -4.4796361923
1275 27 5.3436574936 -3.7594814301
1281 27 5.5713896751 -3.4468593597
1287 27 4.4608931541 -3.3443670273
1293 27 1.3096981049 -3.5109548569
1299 27 -4.4816679955 -3.5160388947
1305 27 -6.5778074265 -3.3029356003
1311 27 -4.925822258 -2.1938562393
1317 27 -3.3141756058 0.5335865021
1335 27 0.9693603516 5.6557836533
1341 27 2.0146055222 5.3988208771
1347 27 3.3581228256 5.4459705353
1353 27 2.1283626556 5.2405433655
1359 27 1.3280200958 4.246011734
1365 27 1.131149292 2.4408693314
1371 27 2.2710065842 1.1995735168
1377 27 3.6247739792 0.0854558945
1383 27 4.9682617188 -1.0668506622
1389 27 4.7946357727 -2.5700464249
1395 27 5.1253829002 -3.7193946838
1401 27 9.1728687286 -4.5936164856
1413 27 -5.8831496239 -6.2570695877
1419 27 -5.0916204453 -6.4919290543
1425 27 -4.418885231 -6.4508094788
1431 27 -2.3967409134 -6.5205698013
1437 27 0.7610521317 -6.0351819992
1443 27 3.4944791794 -5.6380462646
1449 27 5.7261815071 -5.2906217575
1455 27 9.2131929398 -4.4143590927
1461 27 6.9851989746 -4.0167360306
1467 27 1.1521353722 -2.7630233765
1473 27 1.6419906616 -2.3783397675
1479 27 1.9831600189 -2.7144289017
1485 27 3.0245165825 -2.6993751526
1491 27 4.3264503479 -1.9353532791
1497 27 4.6432981491 -1.0612516403
1503 27 2.5338182449 0.1695537567
1509 27 0.8126783371 1.2329177856
1515 27 0.3533649445 1.846162796
1521 27 0.5160903931 -0.4962062836
1527 27 3.2720756531 -3.6134176254
1533 27 4.0881767273 -7.566488266
1539 27 5.3421297073 -7.7770471573
1545 27 4.6179838181 -9.092042923
1551 27 2.5709528923 -8.7275619507
1557 27 0.4697093964 -4.321313858
1563 27 -2.5865564346 -4.1061210632
1569 27 -3.5395812988 -3.9122838974
1575 27 1.7067165375 -3.3705568314
1581 27 5.9929428101 -1.8898248672
1587 27 8.0500450134 0.5822296143
1593 27 9.9881629944 3.7216386795
1599 27 7.6337432861 3.5580263138
1605 27 2.4219856262 -1.4983863831
1611 27 1.6630582809 -1.5295162201
1617 27 1.7926568985 -1.4971847534
1623 27 0.4055194855 -1.9322605133
1629 27 3.244395256 -2.8706645966
1635 27 3.7079181671 -4.0443029404
1641 27 4.1620330811 -4.0853061676
1647 27 4.0153484344 -3.4290676117
1653 27 3.9659528732 -2.4722499847
1659 27 4.1516108513 -1.5482130051
1665 27 4.7411723137 -0.784702301
1671 27 6.9136471748 -0.3849182129
1677 27 7.4928045273 -0.5066261292
1683 27 6.1825604439 -1.2870817184
1689 27 9.5243473053 -5.3357086182
1707 27 2.3809304237 -5.4078388214
1713 27 4.1550936699 -6.7002496719
1719 27 4.2894716263 -6.9422769547
1725 27 3.8781132698 -6.3822669983
1731 27 4.124786377 -5.115395546
1737 27 3.425778389 -2.7196922302
1743 27 -0.2416977882 2.673869133
1761 27 3.1737751961 0.5307655334
1767 27 3.647693634 -0.3120965958
1773 27 3.4410591125 -0.6127328873
1779 27 3.4160299301 -0.7515068054
1785 27 3.6198325157 -0.9483270645
1791 27 3.9813771248 -0.8507738113
1797 27 4.3518133163 -0.8881750107
1803 27 4.0993666649 -0.687921524
1809 27 3.5981397629 -0.4796571732
1815 27 3.9507517815 -0.4077720642
1821 27 4.6450157166 -0.7378845215
1827 27 4.6134867668 -1.6757202148
1833 27 4.5128874779 -2.2155647278
1839 27 4.6080331802 -2.6155824661
1845 27 4.7821717262 -2.5890731812
1851 27 4.821460247 -3.0708780289
1857 27 4.8736114502 -3.1219081879
1863 27 5.5037746429 -2.8546199799
1869 27 4.2672395706 -1.9795770645
1875 27 2.9766640663 0.3221511841
1893 27 3.1979131699 1.1492929459
1899 27 3.5586986542 -3.7928514481
1905 27 3.0136499405 -1.2445459366
1911 27 2.2487030029 -1.9603099823
1917 27 1.3457870483 -2.1284885406
1923 27 1.241973877 -2.0471868515
1929 27 1.3781394958 -1.9820165634
1935 27 2.5990066528 -1.7884836197
1941 27 3.9153862 -1.3958272934
1947 27 5.2674231529 -1.8980665207
1953 27 6.2192525864 -1.4339542389
1959 27 7.5119519234 -1.5731220245
1965 27 8.5679912567 -1.8138904572
1971 27 6.6859660149 -1.6723527908
1977 27 4.1180915833 -1.2008600235
1983 27 2.3216209412 -0.9658489227
1989 27 0.9840717316 -1.3815450668
1995 27 0.6734104156 -2.7469072342
2001 27 1.3887777328 -3.9288597107
2007 27 2.1128911972 -4.3319511414
2013 27 3.1585321426 -4.5709733963
2019 27 4.9529743195 -5.1991653442
2031 27 -0.1234455109 -4.7744426727
2049 27 -0.0548362732 -2.0091638565
2055 27 0.3617191315 -0.2390289307
2061 27 0.8929872513 0.8975610733
2067 27 1.5297384262 0.9691238403
2073 27 1.3655109406 -0.0732765198
2079 27 0.9054355621 -2.9470148087
2085 27 0.2664661407 -6.2187175751
2091 27 -0.2472686768 -4.6258525848
2097 27 -0.8025770187 -4.1860628128
2103 27 -4.5892591476 -3.1994276047
2115 27 -5.6431546211 -2.2338371277
2139 27 -0.0881271362 -6.5318279266
2145 27 3.2568092346 -4.3076734543
2151 27 4.208969593 -4.1243171692
2157 27 4.9660420418 -3.6984558105
2163 27 5.7112936974 -2.1249485016
2169 27 6.3538813591 -4.5970993042
2175 27 6.8852562904 -3.4372367859
2181 27 7.1862535477 -3.0645580292
2187 27 6.4940748215 -2.6627025604
2193 27 6.0442209244 -1.8500518799
2199 27 5.3315401077 -0.62895298
2205 27 5.4492940903 0.4328994751
2211 27 6.2686357498 0.9007024765
2217 27 6.029211998 0.6817789078
2223 27 4.7507991791 -0.1592311859
27 33 -1.4014558792 -10.4000463486
33 33 -0.202334404 -13.1785440445
39 33 0.7601633072 -13.7465028763
45 33 0.7381916046 -13.9720630646
51 33 0.5794858932 -14.1090545654
57 33 1.4510583878 -14.0246238708
63 33 1.6905555725 -14.466917038
69 33 1.2446041107 -15.1439933777
75 33 1.5068216324 -15.6530122757
81 33 1.9634342194 -15.6152648926
87 33 3.4909791946 -13.8859300613
93 33 4.3303470612 -11.078710556
99 33 3.8926534653 -11.0147371292
105 33 2.7356796265 -11.5099487305
111 33 0.8321914673 -13.1180763245
117 33 0.7555570602 -14.6996002197
123 33 1.7325019836 -15.1109638214
129 33 1.831788063 -15.3703260422
135 33 1.0912265778 -15.2586088181
141 33 0.5612096786 -15.0957651138
147 33 0.5725259781 -14.645157814
153 33 0.1831455231 -13.1416034698
159 33 0.4073905945 -12.3362350464
165 33 2.2997684479 -11.8023395538
171 33 1.840631485 -11.79342556
177 33 1.4404468536 -12.7567825317
183 33 1.121219635 -15.178817749
189 33 1.0776109695 -14.7978858948
195 33 1.5704135895 -15.1724910736
201 33 1.5901517868 -15.1857995987
207 33 1.3485355377 -14.8617553711
213 33 1.4236736298 -14.4396247864
219 33 1.8001775742 -13.5124492645
225 33 2.1243600845 -11.9690284729
231 33 2.1235790253 -9.9939365387
237 33 1.6812744141 -7.7481470108
243 33 0.0018501282 -3.5491542816
249 33 -3.5277919769 -1.4298267365
261 33 -8.2335128784 -5.0831041336
273 33 -1.2939777374 -10.0039949417
279 33 -0.9005947113 -11.7781991959
285 33 -0.9286594391 -12.5057039261
291 33 -2.21393013 -12.5436735153
297 33 -1.1496591568 -11.9774179459
303 33 0.3574237823 -11.7719078064
309 33 1.273068428 -11.9893541336
315 33 1.8825540543 -12.8639383316
321 33 2.3729515076 -12.9333610535
327 33 2.5086803436 -12.9591503143
333 33 2.8591117859 -13.16040802
339 33 2.7051591873 -13.8913784027
345 33 2.1844701767 -14.6411237717
351 33 1.3806877136 -15.0259485245
357 33 0.0519857407 -14.4810447693
363 33 -0.8126621246 -13.5770835876
369 33 -1.3338241577 -12.7442207336
375 33 -1.1845731735 -12.2572727203
381 33 -0.0696220398 -12.2319478989
387 33 0.4864730835 -12.6117553711
393 33 -0.357632637 -13.3026123047
399 33 -1.1334638596 -14.4316806793
405 33 -1.901093483 -16.4313354492
411 33 -1.9871530533 -17.7967128754
417 33 -1.9294118881 -16.3437767029
423 33 -1.519903183 -12.9487028122
429 33 -0.7629098892 -8.8670568466
435 33 0.254149437 -6.547041893
441 33 1.135556221 -5.173201561
447 33 1.0388116837 -5.5977144241
453 33 0.7826194763 -6.8850879669
459 33 0.6307182312 -9.5898132324
465 33 1.0724887848 -11.6343927383
471 33 3.3867769241 -13.0012664795
477 33 5.5221147537 -12.9131088257
483 33 2.9572572708 -9.7826690674
489 33 0.5664243698 -8.1138296127
495 33 -1.0175447464 -7.8230342865
501 33 0.7313508987 -8.6992454529
507 33 2.3930273056 -10.0619192123
513 33 3.0883693695 -10.5963935852
519 33 2.4060325623 -10.9181318283
525 33 0.7853517532 -10.1072711945
531 33 -1.2750597 -8.9851226807
537 33 -0.7900505066 -8.4666090012
543 33 -0.5695161819 -8.3096351624
549 33 -0.3042297363 -8.6825027466
555 33 -0.1109113693 -9.3458986282
561 33 0.0397768021 -9.8591871262
567 33 0.531539917 -10.3187093735
573 33 0.5779600143 -10.5236253738
579 33 1.2876749039 -10.6396131516
585 33 2.1500701904 -10.5945730209
591 33 3.1123151779 -10.1483488083
597 33 4.1511745453 -7.1467018127
603 33 4.9136352539 -6.1071634293
615 33 3.742770195 -8.6614532471
621 33 4.2456359863 -9.1114253998
627 33 2.7255344391 -8.9959936142
633 33 1.7662439346 -8.845582962
639 33 0.2487850189 -8.5124073029
645 33 1.2566556931 -12.4487886429
651 33 1.6367139816 -11.0693349838
657 33 2.081237793 -9.9728069305
663 33 3.5534410477 -7.5261554718
669 33 4.7020215988 -8.4728984833
675 33 3.3062400818 -9.4580554962
681 33 3.1873455048 -10.5391979218
687 33 2.955201149 -11.0568552017
693 33 2.0378875732 -11.4873352051
699 33 1.5201053619 -10.0561714172
705 33 1.3596773148 -9.1775665283
711 33 1.6793422699 -8.8663873672
717 33 2.7956104279 -8.9805927277
723 33 4.564406395 -9.7279911041
729 33 6.5336771011 -11.6999292374
735 33 3.8621969223 -12.243268013
741 33 2.813117981 -10.8117361069
747 33 2.1252603531 -8.7218914032
753 33 5.4173049927 -9.0551805496
759 33 -1.0413475037 -9.0173940659
765 33 -0.6811981201 -9.0795030594
771 33 0.6686191559 -9.373837471
777 33 1.5096588135 -10.1876430511
783 33 2.1361408234 -8.5257349014
789 33 2.4219818115 -7.1797142029
795 33 7.5053510666 -0.8611621857
801 33 8.3119764328 0.0742788315
807 33 0.1272325516 -8.3052024841
813 33 6.6103334427 -6.9061946869
819 33 3.1845598221 -1.9132061005
825 33 3.1052484512 -1.5535364151
831 33 3.5007572174 -0.5636863708
837 33 2.6615047455 -2.5781869888
843 33 2.5574073792 -4.5456638336
849 33 2.5893707275 -6.7126369476
855 33 2.6783456802 -8.0181493759
873 33 3.4286108017 -9.3056564331
879 33 6.6912016869 -9.4546251297
885 33 5.0326738358 -9.0288629532
891 33 4.5257701874 -10.4206190109
897 33 0.04484272 -12.021821022
903 33 1.1043682098 -12.4452447891
909 33 -5.0758113861 -14.3606548309
915 33 0.0759162903 -11.2012195587
921 33 0.7344064713 -9.5345439911
927 33 1.7064828873 -8.0034179688
933 33 3.3778486252 -7.2772521973
939 33 2.5499248505 -7.6979103088
945 33 2.2286262512 -8.1228923798
951 33 2.3844585419 -8.8471040726
957 33 2.334980011 -9.4615631104
963 33 0.6989164352 -9.2319974899
969 33 -1.2373151779 -8.6556501389
975 33 0.1175317764 -7.8303442001
981 33 0.9183063507 -7.5647439957
987 33 1.4431905746 -4.5854988098
993 33 2.1385755539 -7.9568147659
999 33 2.4324483871 -7.9957780838
1005 33 2.4205617905 -6.5365905762
1011 33 2.9836292267 -5.2892656326
1017 33 3.2428078651 -4.4417152405
1023 33 3.6563596725 -3.9074678421
1029 33 3.5636701584 -3.9241704941
1035 33 3.4354104996 -4.9516239166
1041 33 2.9008388519 -5.7509012222
1047 33 2.1328773499 -6.4360313416
1053 33 2.3767280579 -7.3899297714
1059 33 2.4044389725 -7.8921661377
1065 33 -0.0030136108 -7.0278673172
1083 33 4.1457343102 -4.759098053
1089 33 5.7132062912 -4.7035446167
1095 33 5.2554569244 -5.0701732635
1101 33 4.5418357849 -6.2055978775
1107 33 0.1367740631 -10.0821895599
1113 33 0.8413743973 -11.3548059464
1119 33 0.9917201996 -10.466588974
1125 33 1.5176811218 -7.012096405
1131 33 0.7598714828 -6.4816122055
1137 33 0.3840198517 -6.345205307
1143 33 2.4642496109 -7.0590639114
1149 33 3.8375663757 -8.1167926788
1155 33 4.4553713799 -8.8832616806
1161 33 4.8382725716 -8.9486503601