TITLE = "B00009"
VARIABLES = "x", "y", "displacement-x", "displacement-y"
ZONE T="Frame 0", I=374, J=300, F=POINT
477 15 5.9829859734 -6.189655304
483 15 5.1224308014 -6.6196537018
489 15 4.2386488914 -6.7001676559
495 15 4.105846405 -6.1605062485
501 15 3.8616285324 -5.6725053787
507 15 3.7846012115 -5.9477233887
1509 15 3.2097563744 -1.8174037933
1515 15 2.9699244499 -1.4933643341
1653 15 0.4961967468 -4.1181964874
1659 15 1.7026987076 -2.6090116501
1665 15 2.5105552673 -1.9398927689
1671 15 4.0425138474 -1.3619804382
1677 15 4.340596199 -0.4771947861
1683 15 4.0822486877 -0.1526517868
1689 15 3.6208715439 -0.0961427689
1695 15 3.1125426292 -0.4261846542
1701 15 2.585682869 -1.0648412704
1713 15 3.1894702911 -2.5003442764
1719 15 3.3020534515 -2.466126442
1725 15 3.7641706467 -1.7033214569
1731 15 4.1713275909 -1.2901725769
1737 15 3.9305853844 -0.6600437164
1743 15 3.2979636192 -0.5226154327
1749 15 2.6494617462 -0.72585392
1755 15 2.2538509369 -0.3535890579
1761 15 2.2781352997 -0.239033699
1767 15 2.4628953934 -0.3563165665
1773 15 2.5855998993 -0.5830621719
1779 15 2.464764595 -1.0287017822
1785 15 2.7825593948 -1.490899086
1791 15 3.0365867615 -1.9614543915
1797 15 3.0919151306 -2.314037323
1803 15 3.3528842926 -2.4323453903
1809 15 3.2351446152 -2.3826799393
1815 15 2.9936971664 -2.0724458694
1821 15 2.8161125183 -1.7680110931
1827 15 2.3623628616 -1.5019493103
1833 15 1.4195747375 -2.0066299438
1839 15 -0.8403644562 -2.4497232437
1845 15 0.410692215 -2.3857841492
1851 15 2.2511615753 -1.5380449295
1857 15 3.4009361267 -1.1096830368
1863 15 4.5098814964 -0.7871932983
1869 15 5.4090099335 -0.4469242096
1875 15 5.1772074699 -0.6168766022
1881 15 4.2890396118 -0.828253746
1887 15 3.4889335632 -1.1606302261
2025 15 2.861123085 -1.9327192307
2031 15 2.642947197 -1.2497119904
2037 15 2.4222402573 -1.0221290588
2043 15 2.198592186 -1.0074396133
2049 15 2.6601514816 -0.9419622421
2055 15 2.7926836014 -0.68217659
2061 15 2.8638811111 0.012005806
2067 15 2.543510437 0.8814592361
2073 15 2.0388460159 1.5882501602
2079 15 2.0800542831 1.5658187866
2085 15 -2.2488546371 1.5083465576
2091 15 -1.905008316 1.4606628418
2097 15 -6.6524682045 2.4180994034
2103 15 -4.3341569901 3.4199666977
2109 15 -2.7441897392 3.5443515778
2115 15 1.1772871017 2.4252433777
2121 15 2.3242378235 2.0327167511
2127 15 2.7586860657 1.2024021149
2133 15 2.2898225784 0.678896904
2139 15 1.9145622253 -0.354470253
453 21 2.8687229156 -13.0190143585
459 21 3.485637188 -8.6615314484
465 21 3.567548275 -7.9446659088
471 21 3.6098842621 -7.8349704742
477 21 3.4162902832 -8.3177433014
483 21 1.7042417526 -11.6186790466
489 21 1.096581459 -12.1276569366
495 21 1.6832857132 -11.0190572739
501 21 1.8605089188 -10.455411911
507 21 2.0774669647 -10.8533315659
513 21 3.5498304367 -11.4218215942
519 21 1.9694976807 -12.8879022598
525 21 1.4622907639 -12.2911281586
531 21 1.0751247406 -11.5829963684
537 21 1.0904092789 -10.4250068665
543 21 0.2375354767 -9.2726478577
855 21 3.0372781754 -7.45890522
861 21 2.8802833557 -8.4113321304
951 21 2.5179653168 -6.9180316925
957 21 2.8367109299 -6.7975788116
963 21 2.6350698471 -6.7323541641
969 21 2.832868576 -6.7318735123
975 21 2.8980293274 -6.8586854935
981 21 2.8315238953 -7.0411090851
987 21 2.9694900513 -6.6567878723
993 21 3.2153663635 -6.150976181
999 21 3.3965263367 -5.8598928452
1005 21 3.4912309647 -5.7845172882
1011 21 3.5966043472 -6.0027732849
1017 21 3.5839452744 -6.3115348816
1023 21 3.1748924255 -6.4166202545
1029 21 2.8680553436 -6.3827543259
1035 21 2.9237756729 -6.5142011642
1041 21 2.5346946716 -6.8074359894
1047 21 2.9216585159 -7.0584640503
1053 21 2.7170009613 -7.411149025
1059 21 2.8078727722 -7.2393112183
1065 21 1.9939422607 -6.8424625397
1071 21 1.7878503799 -6.7191762924
1077 21 1.7407751083 -6.6066246033
1083 21 1.7778921127 -6.2983760834
1089 21 1.8075141907 -5.9352703094
1095 21 1.4546060562 -5.8947467804
1101 21 1.9320793152 -5.8578929901
1107 21 2.2709350586 -6.0165138245
1113 21 2.5467348099 -6.270658493
1119 21 2.4354524612 -6.5496225357
1125 21 2.3664302826 -6.9912824631
1131 21 2.0986948013 -7.243391037
1137 21 2.0554304123 -7.0668745041
1143 21 2.3322410583 -6.9143161774
1149 21 2.2893333435 -6.6189908981
1155 21 2.0099143982 -6.3791675568
1161 21 1.6362199783 -6.2845659256
1167 21 1.2465934753 -6.1856517792
1173 21 1.0275030136 -6.0153560638
1179 21 1.071346283 -6.3573913574
1185 21 1.560760498 -7.348031044
1191 21 3.021065712 -7.9230279922
1197 21 5.2962379456 -8.1114788055
1203 21 7.4207773209 -7.9495267868
1209 21 7.8589820862 -7.2950162888
1215 21 4.4043254852 -6.6832056046
1221 21 1.7671537399 -5.8542633057
1227 21 1.8718643188 -5.2161884308
1233 21 2.3846282959 -4.5390462875
1239 21 3.4528474808 -3.9684782028
1245 21 4.3996195793 -3.601228714
1251 21 4.3494901657 -3.0685052872
1257 21 3.7048459053 -2.4121723175
1263 21 2.8520622253 -3.1733207703
1269 21 2.6519498825 -3.2104406357
1275 21 2.852812767 -2.938123703
1281 21 3.2793226242 -2.7607040405
1287 21 3.875459671 -2.7598342896
1293 21 4.1935501099 -3.0465669632
1299 21 4.2460403442 -3.496670723
1305 21 4.2805070877 -3.8106079102
1311 21 3.5825076103 -4.1118831635
1317 21 4.1739573479 -3.9647130966
1323 21 4.9297609329 -3.4560918808
1329 21 4.4916467667 -3.2242822647
1335 21 4.237030983 -3.1625022888
1341 21 3.3937902451 -3.2360458374
1347 21 2.6062650681 -3.4059381485
1353 21 2.7465333939 -3.8527908325
1359 21 2.3804206848 -4.2378320694
1383 21 1.6378626823 -2.9098262787
1389 21 4.540681839 -3.7448158264
1395 21 4.6321640015 -3.5984201431
1401 21 4.934401989 -3.486746788
1407 21 5.452837944 -3.1861944199
1413 21 6.0151524544 -2.9492301941
1419 21 5.9769692421 -2.9422626495
1425 21 6.0974345207 -2.8809547424
1431 21 6.2573471069 -3.0963954926
1437 21 5.9966716766 -3.5854482651
1443 21 4.9795970917 -4.0946149826
1449 21 3.7956972122 -4.6500329971
1455 21 3.1800880432 -5.2393388748
1461 21 2.8854799271 -5.3493833542
1467 21 3.0321440697 -5.0947704315
1473 21 3.390171051 -4.6129264832
1479 21 3.8036718369 -4.2084283829
1485 21 3.1625981331 -4.4857788086
1491 21 3.1436767578 -4.3556375504
1497 21 3.1283006668 -3.8945989609
1503 21 3.084107399 -3.053062439
1509 21 3.0447921753 -2.1071643829
1515 21 3.0975422859 -1.6491222382
1521 21 3.3849611282 -1.8835887909
1527 21 3.2317218781 -2.133392334
1533 21 3.2292852402 -2.2603130341
1539 21 3.2969603539 -2.3864021301
1545 21 3.8208436966 -2.2604846954
1551 21 3.7758789063 -1.6917877197
1557 21 3.746131897 -1.0607757568
1563 21 3.4967446327 -1.173584938
1569 21 3.2344999313 -1.3309288025
1575 21 3.2586994171 -1.9274511337
1581 21 3.3092632294 -2.84582901
1587 21 3.5084533691 -3.3750267029
1593 21 3.5876998901 -3.642244339
1599 21 3.4926514626 -3.367729187
1605 21 3.3914546967 -3.1484127045
1611 21 3.3680763245 -2.8177585602
1617 21 3.0665836334 -2.5062513351
1623 21 2.4173727036 -2.1970291138
1629 21 1.6742544174 -1.8340044022
1635 21 1.4152679443 -2.1401720047
1641 21 1.2974357605 -2.5066947937
1647 21 1.413848877 -3.1753339767
1653 21 1.9486341476 -3.3055353165
1659 21 2.5992870331 -2.8814907074
1665 21 3.1772537231 -2.3961830139
1671 21 5.9927225113 -1.2408800125
1683 21 4.4191303253 -0.7521944046
1689 21 3.7458925247 -0.8630342484
1695 21 2.4917812347 -1.3121862411
1701 21 0.9350452423 -1.9847326279
1713 21 2.8049087524 -3.8374204636
1719 21 3.0564665794 -3.2906980515
1725 21 3.3721413612 -2.3787937164
1731 21 3.8004026413 -1.7727642059
1737 21 3.6203384399 -1.0499258041
1743 21 2.9745330811 -0.5997581482
1749 21 2.2923498154 -1.0102729797
1755 21 1.8755874634 -0.6122426987
1761 21 1.9580850601 -0.4509057999
1767 21 2.3018932343 -0.4942140579
1773 21 2.3970680237 -0.7877550125
1779 21 2.4481506348 -1.3030939102
1785 21 2.5066108704 -1.9124002457
1791 21 2.6059331894 -2.6309528351
1797 21 2.6755456924 -3.1499328613
1803 21 2.6083250046 -3.3768053055
1809 21 2.8857426643 -3.3026037216
1815 21 2.9236688614 -2.9059362411
1821 21 2.8708677292 -2.4224290848
1827 21 2.4262990952 -2.3922100067
1833 21 1.379989624 -2.8250894547
1839 21 1.1782970428 -5.5110034943
1845 21 1.0413198471 -3.4442453384
1851 21 2.1379432678 -1.5942440033
1857 21 3.0001058578 -0.6986045837
1863 21 4.0991210938 -0.3787488937
1869 21 5.4453048706 -0.5283975601
1875 21 4.8390302658 -0.47930336
1881 21 3.9211215973 -0.7484254837
1887 21 3.3311572075 -1.1256780624
1893 21 2.7118902206 -1.6818094254
1899 21 2.5581026077 -3.2196769714
1905 21 2.3942785263 -7.1024217606
1917 21 -2.910615921 -7.697157383
1923 21 1.7167606354 -5.0223875046
1929 21 1.1519355774 -2.5293235779
1935 21 0.3235492706 0.0450553894
1941 21 1.1764497757 1.4000139236
1959 21 3.886033535 0.0864915848
1965 21 4.1966533661 -0.4148616791
1971 21 3.7199482918 -0.7065429688
1977 21 3.5839967728 -1.2901554108
1983 21 3.5403671265 -1.6473150253
1989 21 3.5566444397 -1.8939981461
1995 21 3.8203611374 -1.9319105148
2001 21 4.0401182175 -2.0308876038
2007 21 3.9688482285 -2.1138906479
2013 21 3.9946079254 -1.9840478897
2019 21 3.9210777283 -1.7897167206
2025 21 3.5022597313 -1.6240348816
2031 21 3.2545275688 -1.3540115356
2037 21 3.2282924652 -1.3012199402
2043 21 3.0911502838 -1.5018959045
2049 21 3.4622411728 -1.4260454178
2055 21 3.7022633553 -1.338019371
2061 21 3.7211465836 -0.5458087921
2067 21 3.3558573723 0.4241952896
2073 21 2.8520030975 0.992433548
2079 21 1.7911291122 0.9019460678
2085 21 -1.0789489746 0.7979488373
2091 21 -1.1851224899 0.9168653488
2097 21 -4.1982145309 1.2051849365
2103 21 -0.5108757019 1.2707891464
2109 21 0.6987810135 1.5627841949
2115 21 1.7785730362 1.6864566803
2121 21 2.9090986252 2.1539373398
2127 21 3.4910993576 1.3615913391
2133 21 3.0982265472 0.9081163406
2139 21 2.7693719864 -0.210152626
2145 21 3.0671873093 -2.904176712
2151 21 5.5958919525 -7.0614991188
2157 21 6.6318640709 -8.112490654
2163 21 5.3703289032 -5.1615695953
2169 21 3.6095180511 -1.7755565643
2175 21 3.5067062378 -0.8822574615
2181 21 3.956656456 -0.0312786102
2187 21 5.0199337006 0.3498697281
2193 21 3.2801990509 0.4987716675
2199 21 3.2853479385 -0.1439857483
2205 21 3.3433103561 -2.2843046188
51 27 0.0273685455 -13.9508876801
57 27 0.5528230667 -13.1872797012
63 27 1.4747161865 -12.8886785507
69 27 1.7138376236 -12.8207931519
75 27 1.0141839981 -12.6271324158
81 27 -0.0968379974 -12.7114667892
87 27 -1.1166419983 -13.0482444763
93 27 -1.5074138641 -13.4196567535
99 27 -1.3822526932 -13.8241548538
105 27 -1.4349269867 -14.3680639267
111 27 -0.8808002472 -14.3239650726
117 27 -0.2019824982 -14.7065114975
123 27 0.3220739365 -13.895152092
129 27 1.2945508957 -13.5211315155
135 27 1.8200645447 -13.9020404816
141 27 1.8981180191 -13.904750824
147 27 1.8569498062 -14.0640945435
153 27 0.6767921448 -17.45195961
159 27 -1.7227115631 -17.3424758911
165 27 2.9249763489 -13.51496315
177 27 1.662478447 -12.69024086
183 27 1.2932739258 -12.4720344543
339 27 0.4221658707 -12.0027008057
345 27 0.359120369 -12.2663555145
351 27 0.1283044815 -12.4607305527
357 27 0.2259922028 -12.3736972809
363 27 0.5881443024 -12.3972215652
369 27 1.2716255188 -12.4368648529
375 27 1.78698349 -12.4753580093
381 27 1.8119192123 -12.5716333389
387 27 2.1487617493 -12.5465803146
393 27 2.9765729904 -12.3271818161
399 27 3.7199702263 -12.0515670776
405 27 4.2510104179 -11.8798675537
411 27 4.4414138794 -12.3817720413
417 27 4.0844693184 -12.6833105087
423 27 3.5338463783 -12.8636846542
429 27 2.1585912704 -12.9427871704
435 27 1.3022451401 -12.8816843033
441 27 1.6201953888 -12.0360116959
447 27 1.5050964355 -10.8519620895
453 27 1.4455909729 -9.0905008316
459 27 6.4280891418 -7.7212953568
465 27 1.9691915512 -8.2463874817
471 27 2.3473768234 -9.0911893845
477 27 2.2359189987 -10.359164238
483 27 1.1559238434 -11.9894161224
489 27 -0.1896972656 -12.97838974
495 27 0.280134201 -13.4084844589
501 27 0.6467027664 -14.2218160629
507 27 1.0022335052 -14.4840707779
513 27 1.1743097305 -15.3963098526
519 27 1.0343294144 -15.3474750519
525 27 1.0135746002 -13.0630016327
531 27 0.9424915314 -11.7568254471
537 27 0.8785457611 -10.7821674347
543 27 0.8113994598 -9.9119939804
549 27 0.9152355194 -9.7841825485
555 27 0.6307268143 -9.8080997467
561 27 0.4446191788 -9.764128685
567 27 0.4183826447 -9.7330265045
573 27 0.5434646606 -9.693022728
579 27 0.7536468506 -9.8640241623
585 27 0.8448801041 -10.215970993
591 27 0.000164032 -10.4743471146
597 27 1.6075401306 -10.5679292679
603 27 1.3251390457 -10.4407911301
609 27 -0.4467058182 -10.3012590408
615 27 1.6215734482 -10.5682125092
621 27 0.4241895676 -11.1411657333
627 27 -0.1218252182 -11.6304121017
633 27 -0.1113233566 -12.2421522141
639 27 -0.3130760193 -12.3983888626
645 27 1.0433225632 -12.5347881317
651 27 2.1747741699 -11.900604248
657 27 2.7299575806 -11.3489236832
663 27 2.1585130692 -10.9577484131
669 27 1.5663576126 -10.6115369797
675 27 1.4654254913 -10.4587440491
681 27 1.2247209549 -10.3574151993
687 27 1.4850139618 -10.2517986298
693 27 1.8228235245 -10.2366371155
699 27 2.2968435287 -9.9443349838
705 27 3.0755586624 -9.7648773193
711 27 3.1910133362 -9.641119957
717 27 3.5550489426 -8.8898849487
723 27 2.6950769424 -8.136141777
729 27 2.3293733597 -7.9411811829
735 27 2.1676568985 -7.8511209488
741 27 2.4559860229 -8.3159322739
747 27 2.4307880402 -9.0438394547
753 27 4.9015541077 -9.9988384247
765 27 1.7333774567 -10.0403270721
771 27 1.6545391083 -9.6292715073
777 27 2.0372991562 -8.8983430862
783 27 2.5135116577 -8.0584897995
789 27 2.1886529922 -6.7802371979
825 27 2.8443908691 -9.6666069031
831 27 2.1664857864 -9.1702871323
837 27 2.1221981049 -8.4640264511
843 27 2.6224155426 -7.4805612564
849 27 3.1554203033 -7.1918115616
855 27 2.8744897842 -7.4475402832
861 27 2.8691625595 -8.6335353851
867 27 2.9261236191 -9.6343317032
873 27 3.4165306091 -9.9870195389
879 27 3.6884336472 -9.6801567078
885 27 3.3967294693 -8.5926837921
891 27 2.5633449554 -7.2843990326
897 27 1.824760437 -7.0932025909
903 27 1.3399991989 -8.4709939957
909 27 0.9909963608 -9.2182044983
915 27 1.1934719086 -9.0709056854
921 27 1.3408212662 -8.5467367172
927 27 1.5302143097 -7.8022480011
933 27 1.56153965 -7.3001642227
939 27 1.6437559128 -7.0449008942
945 27 1.8150749207 -6.9348125458
951 27 2.1917028427 -6.7611255646
957 27 2.5158157349 -6.5314598083
963 27 2.5754041672 -6.4056215286
969 27 2.772064209 -6.4018535614
975 27 2.856678009 -6.5478630066
981 27 2.8114900589 -6.8208551407
987 27 2.9775218964 -6.2777347565
993 27 3.1770849228 -5.6810321808
999 27 3.3416295052 -5.3877401352
1005 27 3.4157056808 -5.4993257523
1011 27 3.4687547684 -5.8298273087
1017 27 3.4030976295 -6.2327747345
1023 27 3.0350608826 -6.3705148697
1029 27 2.7867908478 -6.4391212463
1035 27 2.7814016342 -6.6549043655
1041 27 2.7069940567 -7.1259584427
1047 27 3.0847415924 -7.7289733887
1053 27 3.5289974213 -7.8511581421
1059 27 2.464963913 -7.426112175
1065 27 1.5277814865 -6.6827392578
1071 27 1.0382165909 -6.4613142014
1077 27 0.9566459656 -6.3283777237
1083 27 0.9516201019 -5.9879827499
1089 27 1.3891353607 -5.6567773819
1095 27 1.5542593002 -5.7131881714
1101 27 1.7249116898 -5.8735723495
1107 27 2.0722513199 -6.111032486
1113 27 2.3788566589 -6.486492157
1119 27 1.8866109848 -6.805065155
1125 27 1.5799407959 -7.1156797409
1131 27 1.2826309204 -7.2581205368
1137 27 0.8395624161 -7.1729211807
1143 27 1.757601738 -6.8663730621
1149 27 2.0184621811 -6.4920635223
1155 27 2.0377101898 -6.2312736511
1161 27 1.8761711121 -6.0592756271
1167 27 1.6483650208 -5.8683423996
1173 27 1.6335954666 -5.7622661591
1179 27 1.8793420792 -6.0294704437
1185 27 2.6876430511 -6.7102880478
1191 27 4.1957836151 -7.2491321564
1197 27 6.2335734367 -7.7112207413
1203 27 8.9998149872 -8.0781908035
1209 27 9.1514263153 -7.7558450699
1215 27 5.0289683342 -6.9601364136
1221 27 0.5658464432 -5.9111785889
1227 27 1.3804254532 -5.0376701355
1233 27 1.7763795853 -4.3923397064
1239 27 2.8878107071 -4.0909061432
1245 27 3.8174042702 -3.9780569077
1251 27 3.8321170807 -3.74609375
1257 27 3.0212368965 -3.3819818497
1263 27 2.2545394897 -3.521739006
1269 27 2.0869350433 -3.7295532227
1275 27 2.3181304932 -3.1198301315
1281 27 3.1308746338 -2.8477315903
1287 27 4.0532808304 -2.996096611
1293 27 4.5529303551 -3.3789930344
1299 27 4.8065185547 -3.8829879761
1305 27 5.1446256638 -4.2130699158
1311 27 4.7074213028 -4.2888994217
1317 27 4.9808969498 -4.1213169098
1323 27 6.1175351143 -3.7423210144
1329 27 5.3490781784 -3.4562110901
1335 27 4.9400477409 -3.228228569
1341 27 3.8914875984 -3.1159982681
1347 27 2.9790182114 -3.1229314804
1353 27 2.4011678696 -3.3452072144
1359 27 1.6748371124 -3.6090364456
1389 27 4.1607341766 -3.681892395
1395 27 4.7574615479 -3.5718374252
1401 27 5.1511201859 -3.3006210327
1407 27 6.4525156021 -2.9593372345
1413 27 6.4154033661 -2.7523889542
1419 27 6.1690940857 -2.8108205795
1425 27 6.2822852135 -2.9255571365
1431 27 6.3358793259 -3.1251745224
1437 27 5.889111042 -3.4997444153
1443 27 4.8851213455 -3.9135093689
1449 27 3.9765620232 -4.3036584854
1455 27 3.4732637405 -4.785402298
1461 27 3.2015275955 -4.8668107986
1467 27 3.3217940331 -4.7434978485
1473 27 3.6747102737 -4.6073255539
1479 27 3.7984156609 -4.863986969
1485 27 3.2147092819 -5.6200685501
1491 27 3.188354969 -5.5492124557
1497 27 3.3253555298 -5.0535068512
1503 27 2.8362007141 -4.0474920273
1509 27 2.662355423 -2.6443681717
1515 27 2.7020282745 -2.0055246353
1521 27 2.8238277435 -2.1107530594
1527 27 3.0724344254 -2.1666030884
1533 27 3.0824947357 -2.04159832
1539 27 3.3138895035 -2.0017433167
1545 27 3.419467926 -1.9176282883
1551 27 3.1643457413 -1.4794635773
1557 27 2.8640604019 -1.112282753
1563 27 2.4834403992 -1.021987915
1569 27 2.2751369476 -1.1668777466
1575 27 2.4790353775 -1.6452417374
1581 27 3.5496807098 -2.2971134186
1587 27 4.002828598 -2.8563308716
1593 27 4.0166473389 -3.1907024384
1599 27 3.9586868286 -3.1930923462
1605 27 3.789103508 -3.0326938629
1611 27 3.6854906082 -2.7470378876
1617 27 3.432639122 -2.435500145
1623 27 2.808968544 -2.0939445496
1629 27 1.8771133423 -1.615737915
1635 27 1.3949289322 -1.4737653732
1641 27 1.451256752 -2.2604532242
1647 27 1.939458847 -3.1752967834
1653 27 2.6662244797 -3.7047243118
1659 27 3.3283424377 -3.5880699158
1665 27 3.5487833023 -2.8628845215
1671 27 5.8054189682 -0.362663269
1677 27 4.9096488953 -0.3006067276
1683 27 4.2983136177 -1.6388273239
1689 27 3.5987172127 -2.4048452377
1695 27 2.468249321 -2.9252414703
1701 27 2.5725708008 -3.2797489166
1707 27 2.8741226196 -3.6061687469
1713 27 2.8138570786 -3.5015382767
1719 27 2.7425613403 -3.147562027
1725 27 2.9087491035 -2.3781442642
1731 27 3.2354898453 -1.6632528305
1737 27 3.2934861183 -1.0970087051
1743 27 2.6757555008 -0.7786645889
1749 27 1.8816518784 -1.0242977142
1755 27 1.4652547836 -0.8582544327
1761 27 1.5913105011 -0.7370424271
1767 27 2.0918245316 -0.7521791458
1773 27 2.2930717468 -0.9940509796
1779 27 2.5039520264 -1.4474086761
1785 27 2.5935192108 -2.1099357605
1791 27 2.6326551437 -3.1497030258
1797 27 2.9817171097 -3.681227684
1803 27 3.081788063 -3.854341507
1809 27 3.0660352707 -3.8043031693
1815 27 3.3821077347 -3.361489296
1821 27 3.3663058281 -2.9168071747
1827 27 2.7361793518 -2.7724399567
1833 27 1.7425956726 -3.114812851
1839 27 1.3513936996 -4.0200910568
1845 27 1.3174571991 -2.8929252625
1851 27 2.1229610443 -1.4584236145
1857 27 2.4958152771 -0.8606939316
1863 27 3.2836942673 -0.7122802734
1869 27 4.5952014923 -0.8768777847
1875 27 4.1504297256 -0.8382129669
1881 27 3.3650174141 -0.9384126663
1887 27 2.9933848381 -1.0074424744
1893 27 2.6449966431 -1.3240098953
1899 27 2.4547290802 -1.367939949
1905 27 2.2984495163 -1.8110847473
1911 27 1.932138443 -3.530251503
1917 27 1.9723434448 -3.2126893997
1923 27 1.1871681213 -2.5259370804
1929 27 0.2471780777 -1.4432649612
1935 27 0.2439498901 -0.1311702728
1941 27 0.440574646 0.8655586243
1947 27 1.1545209885 1.7080202103
1953 27 2.169254303 1.7731351852
1959 27 3.0264110565 1.2302694321
1965 27 4.0595188141 0.7255105972
1971 27 4.3625421524 0.3568840027
1977 27 3.718568325 -0.0427684784
1983 27 3.113368988 -0.1182565689
1989 27 3.0786948204 -0.1097869873
1995 27 3.5897784233 -0.3916873932
2001 27 3.7527370453 -0.7730607986
2007 27 3.7574071884 -1.2290306091
2013 27 3.6485376358 -1.4831094742
2019 27 3.5267424583 -1.5816116333
2025 27 3.5249562263 -1.5591201782
2031 27 3.5417604446 -1.4694910049
2037 27 3.7136411667 -1.4825153351
2043 27 3.7430038452 -1.514125824
2049 27 3.9318752289 -1.3890113831
2055 27 4.1752514839 -1.1218032837
2061 27 4.1817951202 -0.5312995911
2067 27 3.7223653793 0.1528215408
2073 27 3.096364975 0.6083164215
2079 27 2.6164121628 0.6282424927
2085 27 0.4738435745 0.6354789734
2091 27 -0.4114522934 0.587975502
2097 27 -0.8052654266 0.7283964157
2103 27 -0.0978908539 1.0013799667
2109 27 1.7729701996 1.4812049866
2115 27 2.3544654846 2.1328334808
2121 27 3.574742794 2.4688472748
2127 27 4.4243993759 1.8239974976
2133 27 3.7773046494 1.3728809357
2139 27 3.5274071693 0.2037591934
2145 27 3.7465686798 -1.3311195374
2151 27 4.3049144745 -2.1863765717
2157 27 4.7660455704 -3.0956611633
2163 27 5.6439762115 -4.3894824982
2169 27 3.4025716782 -1.2730922699
2175 27 3.2642707825 -0.0428514481
2181 27 2.6814723015 1.1197414398
2193 27 4.5485620499 0.7433872223
2199 27 4.3891630173 0.3061189651
2205 27 4.3672165871 -1.0027503967
2211 27 4.7844781876 -2.1660966873
2217 27 6.1238245964 -4.0621881485
15 33 -1.6127538681 -13.7220859528
21 33 -1.4544763565 -13.6097993851
27 33 -1.1375703812 -13.4405031204
33 33 -0.6885480881 -13.3071174622
39 33 -0.3300065994 -13.3021173477
45 33 -0.1148815155 -13.2038211823
51 33 0.134185791 -12.9471235275
57 33 0.7791633606 -12.8925056458
63 33 2.0474252701 -12.741727829
69 33 3.285572052 -12.6537408829
75 33 1.8152475357 -13.0094652176
81 33 0.3072881699 -13.2685956955
87 33 -0.7060623169 -13.5978765488
93 33 -1.3020553589 -13.8692169189
99 33 -1.033613205 -14.1508512497
105 33 -0.7132911682 -14.368680954
111 33 -0.1300773621 -14.3243970871
117 33 0.7032737732 -14.2564067841
123 33 1.3614187241 -14.0896987915
129 33 1.7265663147 -13.8031377792
135 33 2.0157680511 -13.7838773727
141 33 2.2690582275 -13.5294809341
147 33 1.8591833115 -13.8226652145
153 33 1.474811554 -14.1634836197
159 33 1.191660881 -13.8878164291
165 33 1.1962242126 -13.4207248688
171 33 1.2454967499 -12.6621417999
177 33 1.5108633041 -11.7248239517
183 33 1.3110628128 -10.7870979309
189 33 1.0350418091 -10.4700222015
195 33 -0.0814094543 -10.3148069382
201 33 1.046664238 -10.50066185
207 33 3.5351581573 -11.1212720871
213 33 1.9393959045 -11.7875099182
219 33 1.2902870178 -12.3775310516
225 33 0.4709663391 -11.9830741882
231 33 -0.1784000397 -11.9602909088
237 33 0.5261878967 -12.295841217
243 33 1.2549219131 -13.338727951
249 33 1.7186126709 -13.0105991364
255 33 2.1359081268 -12.4210891724
261 33 2.1484956741 -12.0658054352
267 33 1.2107114792 -12.1034431458
273 33 0.4109773636 -12.4805727005
279 33 -0.0985736847 -12.6146707535
285 33 0.3076591492 -12.5059890747
291 33 0.1879205704 -12.4111270905
297 33 0.3806591034 -12.5204811096
303 33 0.985748291 -12.8387231827
309 33 1.7402591705 -13.8065881729
315 33 2.2061805725 -14.1078233719
321 33 2.4060115814 -13.4537115097
327 33 1.9562730789 -12.4598207474
333 33 1.3277187347 -12.1234397888
339 33 0.7640666962 -12.1979370117
345 33 0.4166603088 -12.6092185974
351 33 -0.0562877655 -12.8861064911
357 33 0.0364933014 -12.5920419693
363 33 0.4389543533 -12.3415203094
369 33 1.1888694763 -12.3845415115
375 33 1.7224645615 -12.6454391479
381 33 1.3106069565 -13.0242176056
387 33 1.2193870544 -13.1673526764
393 33 1.6397390366 -12.9985952377
399 33 2.1174573898 -12.5987462997
405 33 2.4712247849 -12.3631925583
411 33 2.437538147 -12.5273704529
417 33 1.4914360046 -12.5730390549
423 33 0.7576227188 -12.7844810486
429 33 1.1850595474 -12.8802337646
435 33 1.7261667252 -12.7793178558
441 33 1.3715686798 -11.6581411362
447 33 1.1888866425 -10.3967037201
453 33 -2.0473675728 -8.3861989975
459 33 0.3396425247 -7.6363925934
465 33 1.2548589706 -8.1079864502
471 33 2.3283081055 -9.6934509277
477 33 2.1626834869 -11.2464418411
483 33 0.9702606201 -13.3143568039
489 33 -0.5022344589 -14.2530231476
495 33 -0.2021980286 -14.582947731
501 33 0.4377660751 -15.5422687531
507 33 0.5299186707 -16.132144928
513 33 0.3629522324 -16.4226493835
519 33 0.179063797 -14.7943468094
525 33 0.4893112183 -12.6200647354
531 33 0.4587841034 -11.4049005508
537 33 0.37196064 -10.6381578445
543 33 0.4645862579 -10.2495918274
549 33 0.615105629 -10.1966285706
555 33 0.5513944626 -10.1333408356
561 33 0.4332370758 -9.9982099533
567 33 0.5715656281 -9.798406601
573 33 0.7382822037 -9.5031023026
579 33 1.2259902954 -9.6683340073
585 33 1.5314874649 -10.2549419403
591 33 1.6785945892 -10.7703113556
597 33 2.6066799164 -10.9530162811
603 33 3.127158165 -10.9621772766
609 33 1.4251499176 -10.9106884003
615 33 -1.1334781647 -10.9522781372
621 33 -3.410369873 -11.3718690872
627 33 -2.9040575027 -11.667131424
633 33 -2.2677640915 -12.2275161743
639 33 -1.9180440903 -12.3684635162
645 33 0.0697841644 -12.3135185242
651 33 1.5265226364 -11.7093372345
657 33 2.1934833527 -10.8594579697
663 33 2.1349086761 -10.2676820755
669 33 1.9951238632 -9.8982467651
675 33 1.8909873962 -9.7643222809
681 33 1.7558450699 -9.6309480667
687 33 1.9333553314 -9.4837818146
693 33 2.151102066 -9.3680849075
699 33 2.3713417053 -9.5662975311
705 33 2.7658891678 -10.04459095
711 33 2.9258117676 -10.2264823914
717 33 2.8124732971 -9.8932313919
723 33 2.6536245346 -9.1678619385
729 33 2.8423776627 -8.3334846497
735 33 2.842458725 -7.3754310608
741 33 3.1803894043 -6.8910942078
747 33 3.2206850052 -8.0954799652
753 33 7.7766075134 -9.0808677673
759 33 6.5764274597 -8.8323087692
765 33 2.2668466568 -9.2527561188
771 33 2.0738248825 -8.9951200485
777 33 2.377863884 -8.4955482483
783 33 2.5610456467 -7.7659502029
789 33 2.181602478 -5.0715379715
795 33 1.5380992889 -4.2860984802
801 33 1.2704563141 -5.1677942276
807 33 1.2509298325 -8.2118196487
813 33 1.7496404648 -9.9487609863
819 33 1.9224004745 -10.4690990448
825 33 2.156003952 -9.8206129074
831 33 2.1564369202 -9.2571601868
837 33 2.1984806061 -8.8185071945
843 33 2.4288082123 -7.9561796188
849 33 2.4869213104 -7.7930593491
855 33 2.5539064407 -8.1465005875
861 33 2.596903801 -8.8002128601
867 33 2.8874263763 -9.4945802689
873 33 3.4593601227 -9.8451042175
879 33 3.6596126556 -9.7292747498
885 33 3.3880119324 -8.3869438171
891 33 2.7420063019 -7.4833698273
897 33 1.9900131226 -7.2957925797
903 33 1.4616603851 -7.6552610397
909 33 1.1105203629 -8.1586389542
915 33 1.4106760025 -8.2824401855
921 33 1.6002035141 -7.9155387878
927 33 1.77617836 -7.5120668411
933 33 1.7956438065 -7.2451868057
939 33 1.7969322205 -7.0420465469
945 33 1.9709596634 -6.8945884705
951 33 2.1591415405 -6.6201086044
957 33 2.4757232666 -6.2958345413
963 33 2.6658706665 -6.106959343
969 33 2.7768592834 -6.08223629
975 33 2.8054046631 -6.2546424866
981 33 2.8255214691 -6.6009206772
987 33 2.9759273529 -6.2951059341
993 33 3.1294775009 -5.577167511
999 33 3.2217540741 -5.2957258224
1005 33 3.1608219147 -5.4825487137
1011 33 3.1929883957 -5.7435941696
1017 33 3.1323919296 -6.0125427246
1023 33 2.9696521759 -6.1504220963
1029 33 2.7290344238 -6.2666072845
1035 33 2.6363649368 -6.5339622498
1041 33 2.4910869598 -7.1696510315
1047 33 2.7300853729 -8.1030902863
1053 33 2.3278169632 -7.8513584137
1059 33 2.2180185318 -7.1305713654
1065 33 1.1657648087 -6.2995643616
1071 33 0.5061349869 -6.1423473358
1077 33 0.32970047 -6.1169872284
1083 33 0.4501371384 -5.9820766449
1089 33 1.3434476852 -5.8380279541
1095 33 1.9274463654 -5.8334064484
1101 33 2.1868362427 -6.0313262939
1107 33 2.1033124924 -6.3966770172
1113 33 2.0730438232 -6.7200632095
1119 33 1.3853368759 -7.1218090057
1125 33 0.9996366501 -7.4490461349
1131 33 0.5314273834 -7.3996372223
1137 33 0.2806539536 -7.1872262955
1143 33 1.296043396 -6.907793045
1149 33 1.8840436935 -6.4157514572
1155 33 2.1567420959 -6.1552219391
1161 33 2.2009849548 -5.9228229523
1167 33 2.0975427628 -5.7529878616
1173 33 2.1592922211 -5.7107982635
1179 33 2.6156272888 -5.7916507721
1185 33 4.0123462677 -6.1045532227
1191 33 5.0729370117 -6.2711467743
1197 33 6.4550714493 -7.0450353622
1203 33 8.3730669022 -7.9697771072
1209 33 8.6127099991 -8.0571422577
1215 33 5.432050705 -7.1939840317
1221 33 2.9119768143 -5.7773618698
1227 33 1.7406158447 -4.648651123
1233 33 1.803404808 -4.0176315308
1239 33 2.4953184128 -3.9879074097
1245 33 3.0524978638 -4.4844770432
1251 33 3.0020375252 -4.595457077
1257 33 2.5428781509 -4.5274124146
1263 33 1.8809909821 -4.6663923264
1269 33 1.637093544 -4.737859726
1275 33 1.7517881393 -4.1283559799
1281 33 2.8225021362 -3.6242132187
1287 33 3.9641094208 -3.6492366791
1293 33 4.7898907661 -4.0988893509
1299 33 5.9455604553 -4.7835187912
1305 33 5.2288331985 -5.0290412903
1311 33 4.6799521446 -4.8910999298
1317 33 4.451529026 -4.5297489166
1323 33 4.4628763199 -4.0116167068
1329 33 5.3772583008 -3.4981203079
1335 33 6.0113620758 -3.1748247147
1341 33 4.9766635895 -2.8551454544
1347 33 3.6195626259 -2.5899505615
1353 33 2.1471643448 -2.7097320557
1359 33 0.53748703 -3.1398010254
1365 33 4.7504329681 1.161450386
1389 33 4.2931728363 -3.8318128586
1395 33 4.5977525711 -3.9066801071
1401 33 5.0585808754 -3.5978116989
1407 33 5.5143537521 -3.0489425659
1413 33 5.8067588806 -2.689535141
1419 33 5.9914894104 -2.7353754044
1425 33 6.5019655228 -2.8531265259
1431 33 6.3821144104 -2.9938869476
1437 33 5.7023777962 -3.3996992111
1443 33 4.8537473679 -3.718000412
1449 33 3.9659733772 -3.9136991501
1455 33 3.455245018 -4.2703962326
1461 33 3.1098155975 -4.3991546631
1467 33 3.1678943634 -4.3252468109
1473 33 3.46144104 -4.2971782684
1479 33 3.5471534729 -5.0545215607
1485 33 3.0013980865 -7.9240455627
1491 33 2.9153432846 -6.4543361664
1497 33 3.2416563034 -6.4640846252
1503 33 2.0437097549 -5.0432157516
1509 33 2.0768165588 -3.4913854599
1515 33 2.3579120636 -2.8577613831
1521 33 2.4410181046 -2.8176736832
1527 33 2.9672088623 -2.5772075653
1533 33 2.869436264 -2.2706794739
1539 33 2.9337024689 -1.9188919067