TITLE = "B00011"
VARIABLES = "x", "y", "displacement-x", "displacement-y"
ZONE T="Frame 0", I=374, J=300, F=POINT
129 15 13.1124353409 -0.4372730255
135 15 12.2800807953 0.4820041656
141 15 14.551615715 0.2164230347
393 15 -10.4163341522 -7.8771886826
399 15 -7.0992984772 -10.773724556
405 15 -7.0993766785 -9.417547226
411 15 -10.8176136017 0.3522624969
1227 15 -0.4856843948 -5.2795028687
1233 15 -0.3270339966 -6.0555419922
1239 15 0.5765390396 -4.9879388809
1245 15 1.3720989227 -4.0588645935
1335 15 3.4417591095 -6.4555740356
1341 15 4.3403458595 -7.6051878929
1347 15 4.3563251495 -7.430478096
1353 15 2.3249111176 -7.2763752937
1359 15 2.0355072021 -8.3115158081
1365 15 0.2159719467 1.5681619644
1473 15 3.8985719681 -3.718211174
1479 15 4.8285036087 -3.2644262314
1485 15 5.9449872971 -3.1045475006
1491 15 7.054438591 -3.0859870911
1497 15 6.97042799 -3.0282440186
1503 15 6.5694980621 -2.9869184494
1509 15 6.1678628922 -2.793762207
1635 15 0.746471405 -2.654718399
1641 15 0.4921350479 -3.3139724731
1647 15 0.4578876495 -4.2080163956
1653 15 1.0924043655 -3.455915451
1659 15 1.4827957153 -3.3594245911
1665 15 0.69780159 -0.9265222549
1695 15 2.0024719238 0.9114074707
1713 15 5.1089687347 -3.6914701462
1719 15 3.1134300232 -3.7055912018
1725 15 5.8698272705 -5.2983474731
1743 15 3.033162117 -0.6585597992
1749 15 2.2366132736 -0.6160163879
1755 15 1.7976131439 1.4325008392
1761 15 1.8811855316 -0.1923131943
1767 15 1.8302726746 -1.4707603455
1809 15 4.6718387604 -4.0802268982
1815 15 5.3760552406 -1.8927974701
1821 15 5.4929871559 -0.8533058167
1827 15 4.6776862144 -0.0803718567
1833 15 3.4320411682 -0.3641891479
1839 15 -1.135330677 3.3298254013
1845 15 -0.1586952209 -0.0384054184
1851 15 1.8657693863 -1.2857913971
1857 15 1.0575714111 -2.8286247253
1863 15 0.2389793396 -3.3166742325
1869 15 -0.2842483521 -2.6244878769
1875 15 0.505897522 -1.3680782318
1881 15 1.53262043 -0.5551261902
1887 15 3.262386322 -0.3107538223
1893 15 3.2659053802 -0.5805463791
1899 15 3.6844329834 -1.4189624786
1905 15 4.0446062088 -2.830245018
2001 15 1.9035587311 -2.0986166
2007 15 2.5733795166 -1.7780361176
2013 15 4.6393818855 -2.0417709351
2019 15 3.7134685516 -1.8366689682
2025 15 3.6841306686 -2.2169914246
2031 15 4.036813736 -2.3603973389
2037 15 3.8678870201 -2.2390756607
2043 15 3.654738903 -1.7975130081
2049 15 3.7138538361 -1.0052633286
2055 15 3.1468782425 0.1591415405
2061 15 2.6598186493 1.3781423569
2067 15 2.1893196106 2.1411409378
2073 15 1.6237230301 2.4775600433
2079 15 1.0334997177 2.7006177902
2085 15 0.2351713181 3.6482248306
2091 15 3.130815506 5.2342424393
2097 15 4.6594743729 7.0318822861
2103 15 6.1693611145 7.7033734322
2109 15 7.0611085892 7.1578226089
2115 15 5.2179670334 5.1453242302
2121 15 4.1439232826 3.3994722366
2127 15 3.2172250748 2.7143297195
2133 15 2.7230939865 1.3450231552
2211 15 2.0150995255 0.1310462952
2217 15 3.8723077774 0.7316083908
93 21 -8.5928268433 -18.0959358215
99 21 -5.8123550415 -13.8381004333
105 21 -6.6251850128 -12.8910608292
111 21 -2.4396724701 -12.6034860611
117 21 -1.1011657715 -11.3335933685
123 21 1.5435757637 -9.4912490845
129 21 6.0453753471 -8.1228208542
141 21 10.5537481308 -4.3262987137
159 21 2.7183542252 -11.3059892654
165 21 -0.1465473175 -13.6445484161
237 21 4.8449544907 -7.8894262314
243 21 6.2173404694 -8.2436571121
375 21 3.7465686798 -16.0579776764
381 21 0.242026329 -13.3035869598
387 21 -2.021569252 -12.0413856506
393 21 -9.8685970306 -13.9075336456
405 21 -6.3103895187 -12.478966713
417 21 -6.8484950066 -15.1997489929
429 21 -0.1798686981 -15.5044813156
435 21 0.348347187 -15.4771089554
441 21 6.9203577042 -14.1120624542
447 21 4.5585074425 -12.4796667099
453 21 7.2787284851 -13.8202438354
723 21 2.1288146973 -10.4323596954
729 21 2.1951217651 -9.2519817352
735 21 1.4833621979 -8.2588977814
741 21 0.7220077515 -7.3484430313
747 21 0.4509963989 -6.6210441589
753 21 3.9078245163 -7.22174263
759 21 4.9134759903 -8.3484239578
933 21 0.6516418457 -7.8993902206
939 21 1.1182937622 -8.1746339798
945 21 2.1209011078 -8.5836029053
951 21 2.7996120453 -8.8083333969
957 21 3.7400288582 -8.7951593399
963 21 3.4589414597 -8.6377897263
969 21 3.7925229073 -8.2580213547
975 21 4.4218297005 -7.9318437576
981 21 4.6346902847 -7.5720930099
987 21 4.9284243584 -6.2305841446
993 21 4.5781993866 -5.543302536
999 21 3.8579864502 -5.4100818634
1005 21 3.1317224503 -5.724811554
1011 21 2.5664157867 -6.235830307
1017 21 2.2257461548 -6.5318775177
1023 21 2.0076541901 -6.3780822754
1029 21 2.2188282013 -5.7995986938
1035 21 2.8741674423 -4.8486661911
1041 21 3.1793107986 -4.0760354996
1047 21 3.9954843521 -4.2020292282
1053 21 3.7358546257 -4.7805633545
1059 21 2.3405580521 -5.8009033203
1065 21 0.8967180252 -6.1880111694
1071 21 0.7713260651 -6.3560810089
1077 21 1.2958011627 -6.6093683243
1083 21 2.1147003174 -6.9412841797
1089 21 2.5185451508 -7.0928144455
1095 21 2.4322681427 -7.2569026947
1101 21 2.3517398834 -7.2960786819
1107 21 2.1283540726 -7.3635349274
1113 21 2.2414779663 -7.4272470474
1119 21 2.5328054428 -7.3912010193
1125 21 3.0595436096 -7.6403665543
1131 21 2.865187645 -7.6606769562
1137 21 2.9148874283 -7.5492172241
1143 21 3.1052150726 -7.7346534729
1149 21 3.2726964951 -7.7704048157
1155 21 3.4550423622 -7.6678533554
1161 21 3.5378875732 -7.4364595413
1167 21 3.398809433 -7.0054798126
1173 21 3.0526719093 -6.511015892
1179 21 2.5612154007 -6.4490585327
1185 21 1.6231012344 -6.8947763443
1191 21 1.7686185837 -7.6256256104
1197 21 2.3509807587 -8.5640544891
1203 21 2.9720220566 -9.401594162
1209 21 3.6478099823 -9.7436971664
1215 21 1.9830656052 -9.7033567429
1221 21 1.0030899048 -8.9353113174
1227 21 0.1411943436 -7.9074735641
1233 21 0.1973724365 -6.8776483536
1239 21 1.0728158951 -5.8927497864
1245 21 1.9498853683 -5.3849525452
1251 21 2.3857049942 -5.3244581223
1257 21 1.8357753754 -5.730181694
1263 21 1.4479351044 -6.8739738464
1269 21 1.7399101257 -7.0703830719
1275 21 2.5160694122 -6.3717432022
1281 21 3.3562307358 -5.5308132172
1287 21 3.8699188232 -4.8389997482
1293 21 3.3476281166 -4.8319358826
1299 21 2.2111263275 -5.5842943192
1305 21 0.7991571426 -5.9324941635
1311 21 0.4344139099 -5.817647934
1317 21 -0.1056127548 -6.1154022217
1323 21 0.8657016754 -6.6713972092
1329 21 2.4547224045 -6.033118248
1335 21 3.4325723648 -5.9529266357
1341 21 4.2572507858 -6.428902626
1347 21 5.1260261536 -6.5235061646
1353 21 1.4026632309 -5.0917196274
1359 21 2.2883644104 -4.5592823029
1365 21 1.0333003998 -4.0328264236
1371 21 1.903128624 -5.8085517883
1377 21 2.9766759872 -7.2345581055
1383 21 3.4189996719 -7.5321435928
1389 21 5.3625092506 -7.7390394211
1395 21 8.3086051941 -5.3529396057
1437 21 1.6746435165 -6.6363487244
1443 21 3.1814789772 -6.4897756577
1449 21 3.9309635162 -6.4646539688
1455 21 4.1857800484 -6.2395858765
1461 21 3.8296012878 -5.7053337097
1467 21 3.4655838013 -5.0567464828
1473 21 3.6497373581 -4.6883430481
1479 21 4.1382699013 -4.442481041
1485 21 5.1201729774 -4.6838912964
1491 21 6.197766304 -4.6994514465
1497 21 5.9869942665 -4.5092172623
1503 21 5.197687149 -4.1488208771
1509 21 4.4172058105 -3.5817918777
1515 21 3.8064703941 -3.3734521866
1521 21 3.8804755211 -3.2970104218
1527 21 3.6235003471 -3.6705465317
1533 21 3.0667943954 -3.8988246918
1539 21 2.9122066498 -3.65574646
1545 21 2.9413852692 -3.2948608398
1551 21 2.76313591 -2.2751121521
1557 21 3.1002454758 -1.4522590637
1563 21 2.8345298767 -2.0618057251
1569 21 1.399933815 -2.622174263
1575 21 2.0587568283 -3.5767354965
1581 21 2.8352804184 -4.6646785736
1587 21 4.1877799034 -5.7759819031
1593 21 6.8201274872 -6.7431907654
1599 21 5.689013958 -6.5380516052
1605 21 4.242919445 -5.9014415741
1611 21 1.9114613533 -4.5808105469
1617 21 2.0987148285 -3.5155649185
1623 21 1.9650840759 -2.8041934967
1629 21 1.7641830444 -2.4711675644
1635 21 1.6773939133 -3.2972831726
1641 21 1.4061737061 -3.7079916
1647 21 1.2565898895 -3.5995769501
1653 21 1.8532981873 -3.0588731766
1659 21 2.4383354187 -2.2734375
1665 21 3.5930886269 2.6609773636
1671 21 4.9745678902 -3.6099629402
1695 21 1.8192682266 -2.8416318893
1713 21 4.5765147209 -5.9698400497
1719 21 4.4609236717 -6.774939537
1725 21 4.046942234 -5.5943861008
1731 21 3.9305210114 -4.0871744156
1737 21 3.6703853607 -1.8100299835
1743 21 2.96296978 0.2171669006
1749 21 2.4056329727 0.5729408264
1755 21 1.9092912674 0.666390419
1761 21 1.9790277481 -0.4640274048
1767 21 2.1724128723 -1.5687999725
1773 21 1.6834726334 -2.4833030701
1779 21 1.0996417999 -3.3561897278
1785 21 0.8738422394 -3.9380760193
1791 21 0.9841136932 -4.2229270935
1797 21 1.57442379 -4.1829118729
1803 21 2.4033098221 -3.8111791611
1809 21 3.994477272 -3.0940170288
1815 21 4.7118315697 -2.330575943
1821 21 4.9896459579 -1.6029014587
1827 21 4.2810029984 -1.2610273361
1833 21 3.2261314392 -2.1043052673
1839 21 2.6769323349 -2.2850503922
1845 21 1.6690788269 -0.2704620361
1851 21 2.2335805893 -1.289891243
1857 21 1.530043602 -2.4113473892
1863 21 0.7875452042 -3.1880731583
1869 21 0.9827528 -2.9199228287
1875 21 1.2404460907 -1.4565200806
1881 21 1.9538621902 -0.7138414383
1887 21 2.4976463318 -0.1053285599
1893 21 3.0716958046 -0.2921142578
1899 21 3.4326400757 -1.9855775833
1905 21 3.5549974442 -3.6728639603
1911 21 -0.7695789337 -6.2647910118
1917 21 0.6990861893 -5.3155856133
1923 21 6.9128084183 -2.7029504776
1947 21 1.3742446899 -3.028383255
1953 21 -0.4136476517 7.7216959
1965 21 -3.2708721161 10.6740531921
1971 21 -0.9448919296 5.5393595695
1977 21 -0.1283140182 0.417845726
1983 21 0.3056507111 -1.6774902344
1989 21 1.3317623138 -2.5543937683
1995 21 2.1243839264 -2.6018972397
2001 21 2.5365667343 -2.5175514221
2007 21 2.9058580399 -2.3674192429
2013 21 5.234931469 -2.4053258896
2019 21 6.4991879463 -2.620765686
2025 21 5.1498298645 -2.4194746017
2049 21 9.3111276627 -1.9376535416
2055 21 4.1770582199 -0.8485298157
2061 21 3.6790809631 -0.4812755585
2067 21 3.2283573151 -0.4132738113
2073 21 2.6876564026 -1.0871706009
2079 21 1.7757816315 -1.7072677612
2085 21 2.6144037247 -0.5261955261
2091 21 3.9020967484 1.8586015701
2097 21 6.2026233673 3.5496640205
2103 21 6.1753578186 4.2970662117
2109 21 8.2253713608 3.8751487732
2115 21 5.9353423119 3.2960605621
2121 21 4.8690152168 3.0209169388
2127 21 4.2516450882 3.1958751678
2133 21 3.3375959396 2.759601593
2139 21 3.2083725929 0.2546491623
2145 21 4.5318255424 -1.8841991425
2151 21 6.6611757278 -3.9372835159
2157 21 7.3505916595 -5.3187742233
2163 21 4.8705310822 -2.5950927734
2169 21 2.7516059875 -3.1319217682
2175 21 1.8338947296 -3.2770061493
2181 21 4.7549362183 -7.1944704056
2187 21 3.952650547 -6.3372688293
2193 21 3.8550133705 -5.0031871796
2199 21 3.1630020142 -3.2088050842
2205 21 2.6674423218 -1.3716983795
2211 21 3.1851835251 -0.3633098602
2217 21 3.9262046814 0.1943120956
75 27 -0.0138225555 -17.0648345947
81 27 0.9080238342 -15.9229984283
87 27 -3.2535572052 -17.0163612366
93 27 -4.8440933228 -16.3010177612
99 27 -4.9917917252 -15.7155780792
105 27 -4.3152732849 -15.5092544556
111 27 -2.2093229294 -15.9835062027
117 27 -1.4719009399 -15.5066843033
123 27 -0.0272951126 -13.0957126617
129 27 5.1122431755 -10.2272510529
135 27 8.0502929688 -8.2177772522
141 27 8.448264122 -7.6402273178
147 27 6.3132390976 -8.693649292
153 27 -0.766518116 -10.7095422745
159 27 1.9838685989 -12.6792354584
165 27 0.2762308121 -14.451385498
171 27 0.5919466019 -15.1506099701
177 27 1.1969890594 -15.7962284088
183 27 0.6803836823 -15.4949989319
219 27 0.2811985016 -16.7705116272
225 27 1.1770181656 -11.1533727646
231 27 2.043091774 -9.4195585251
237 27 3.0728745461 -9.0169363022
243 27 4.0294361115 -9.1379423141
267 27 1.3222055435 -14.2406225204
273 27 -1.0489826202 -13.7836380005
333 27 1.7759656906 -14.7096376419
339 27 1.2519187927 -14.677438736
345 27 0.9468078613 -15.228269577
351 27 0.7152700424 -15.4985561371
357 27 0.7810287476 -15.4389133453
363 27 1.9822368622 -15.3234786987
369 27 2.1906938553 -14.9642028809
375 27 2.1003351212 -14.6423377991
381 27 0.9150285721 -14.3122348785
387 27 -1.0417432785 -13.7730760574
393 27 -5.0097465515 -13.0069208145
399 27 -4.8828458786 -12.7740526199
405 27 -6.2757472992 -13.5338249207
417 27 -5.8227796555 -15.1186285019
447 27 4.8140659332 -11.7720823288
453 27 3.414645195 -10.6135730743
459 27 2.8013954163 -10.1304197311
465 27 2.1883544922 -10.9424552917
471 27 1.5179615021 -12.9469280243
525 27 0.5259170532 -13.4673452377
531 27 -0.7490310669 -12.4260339737
537 27 -0.670372963 -11.478219986
543 27 -0.3592195511 -10.2944774628
549 27 0.1312036514 -10.1391410828
555 27 0.2430648804 -10.055970192
561 27 -0.2023153305 -10.0428943634
567 27 -0.0583162308 -10.3086509705
573 27 0.1941671371 -10.7531089783
579 27 0.9978160858 -11.3589706421
585 27 1.4976596832 -11.916056633
591 27 2.3202047348 -11.7514343262
597 27 3.1937131882 -11.1046571732
603 27 4.2837128639 -10.4018640518
609 27 -0.685541153 -9.1249389648
615 27 5.9063997269 -10.5445556641
675 27 -0.2037696838 -11.9864377975
681 27 0.963889122 -11.9066419601
687 27 1.7412462234 -12.1154241562
693 27 2.0716943741 -12.3516569138
699 27 2.6011791229 -12.5546693802
705 27 3.2795419693 -12.2077074051
711 27 3.5752391815 -11.6513586044
717 27 3.9233865738 -11.1313152313
723 27 2.9481544495 -10.909740448
729 27 2.8115205765 -10.1506023407
735 27 2.0415554047 -9.5533819199
741 27 1.440079689 -8.8422117233
747 27 1.1215343475 -8.3863859177
753 27 4.9790353775 -8.9203281403
759 27 4.5504264832 -14.1653995514
765 27 4.1935749054 -15.8896770477
771 27 2.6164493561 -13.1927118301
777 27 6.0079936981 -14.8819408417
783 27 5.8638935089 -12.4823207855
789 27 2.8783149719 -9.1000175476
795 27 2.0585947037 -9.0436086655
801 27 1.5846338272 -6.9282159805
807 27 0.9569091797 -8.911028862
813 27 1.7069005966 -9.5054225922
819 27 2.9363870621 -9.4205293655
825 27 3.301358223 -8.8595657349
831 27 2.9582643509 -8.9798336029
837 27 2.4546756744 -9.3458986282
915 27 1.3770170212 -10.2188596725
921 27 0.6538925171 -8.8943490982
927 27 0.1017494202 -8.202293396
933 27 -0.2172613144 -7.9418506622
939 27 0.1163539886 -8.4571247101
945 27 1.0191164017 -9.909617424
951 27 1.9752197266 -9.6816644669
957 27 2.9768028259 -9.4426774979
963 27 3.1184339523 -9.1921310425
969 27 3.6627244949 -8.9036512375
975 27 4.0842962265 -8.7690887451
981 27 4.390601635 -8.582110405
987 27 4.7290844917 -7.1671962738
993 27 4.5842413902 -6.3984880447
999 27 3.7932348251 -6.0424757004
1005 27 3.126209259 -6.1270370483
1011 27 2.6778669357 -6.3900938034
1017 27 2.3257341385 -6.4436416626
1023 27 2.1177883148 -6.2275247574
1029 27 2.3573732376 -5.8407926559
1035 27 2.9522333145 -4.5464811325
1041 27 3.8409843445 -3.2377719879
1047 27 5.6360945702 -4.1052980423
1053 27 5.2160634995 -4.9432411194
1059 27 2.7650728226 -6.1300439835
1065 27 1.1449193954 -6.8834218979
1071 27 0.5261516571 -7.0578489304
1077 27 0.8340511322 -7.3889608383
1083 27 1.368473053 -7.4793739319
1089 27 2.2335681915 -7.4766397476
1095 27 2.2458581924 -7.3515195847
1101 27 1.6176748276 -7.077755928
1107 27 1.3229084015 -7.0554475784
1113 27 1.5071544647 -7.3248796463
1119 27 1.6444368362 -7.4356546402
1125 27 1.9660730362 -7.7406320572
1131 27 1.8889169693 -7.9074335098
1137 27 1.6609334946 -7.8984470367
1143 27 2.1389188766 -8.1937141418
1149 27 2.5539722443 -8.383441925
1155 27 2.9960608482 -8.312166214
1161 27 3.284781456 -8.0100317001
1167 27 3.4255180359 -7.4718885422
1173 27 3.394510746 -6.8019237518
1179 27 3.1694140434 -6.8564872742
1185 27 2.6835412979 -7.4172801971
1191 27 3.1833457947 -8.3338413239
1197 27 3.4309911728 -9.3896150589
1203 27 3.9065093994 -10.2723255157
1209 27 4.1124954224 -10.9250469208
1215 27 2.9489955902 -11.6488733292
1221 27 1.7629861832 -10.2992248535
1227 27 0.8727369308 -9.1914834976
1233 27 0.8721818924 -7.0809392929
1239 27 1.6098585129 -5.906498909
1245 27 2.2902002335 -5.5814361572
1251 27 2.7961378098 -5.7104578018
1257 27 1.9706888199 -6.1391267776
1263 27 1.3932685852 -8.9953832626
1269 27 1.5430412292 -8.1401834488
1275 27 2.3657665253 -6.2760124207
1281 27 3.6120576859 -4.9898414612
1287 27 4.7876386642 -3.5520210266
1293 27 3.7583093643 -4.1311292648
1299 27 2.7212944031 -4.8236341476
1305 27 -1.7988872528 -5.2171707153
1311 27 0.6195383072 -5.1037054062
1317 27 0.1997976303 -4.9322223663
1323 27 -4.606628418 -3.8500938416
1329 27 1.8466320038 -5.1029310226
1335 27 3.0435962677 -5.2766361237
1341 27 5.3081154823 -6.0903911591
1347 27 3.7667198181 -5.8668050766
1359 27 2.2436571121 -5.3873853683
1365 27 2.0258970261 -3.4489383698
1371 27 2.5918931961 -3.8157176971
1377 27 4.656088829 0.1566181183
1383 27 2.693816185 -7.2365865707
1389 27 3.9029140472 -7.03810215
1395 27 4.9065332413 -6.8550271988
1401 27 5.1348791122 -6.8831510544
1413 27 -5.1282010078 -7.2269096375
1419 27 -2.9149312973 -7.0979833603
1425 27 -3.1188983917 -6.7732477188
1431 27 -1.2356262207 -6.3153743744
1437 27 1.6259975433 -5.9299068451
1443 27 3.1500787735 -6.1061964035
1449 27 4.1829805374 -6.5605726242
1455 27 4.3233270645 -6.4248771667
1461 27 3.8964929581 -6.1195011139
1467 27 2.6318311691 -5.607667923
1473 27 2.817358017 -5.2565526962
1479 27 3.1891222 -5.9134702682
1485 27 4.1679515839 -6.6755361557
1491 27 5.3647265434 -6.7471122742
1497 27 5.2316961288 -6.277545929
1503 27 3.8574638367 -5.4321975708
1509 27 2.8040904999 -4.12084198
1515 27 2.4516496658 -3.2926883698
1521 27 2.4260263443 -2.548210144
1527 27 2.1882600784 -2.9131717682
1533 27 1.6350812912 -3.0509805679
1539 27 1.0542783737 -2.8560819626
1545 27 1.8198432922 -2.6911945343
1551 27 2.4228553772 -1.7928781509
1557 27 2.7285318375 -1.495470047
1563 27 2.5626583099 -1.8659925461
1569 27 1.5151634216 -2.5511360168
1575 27 1.7344608307 -3.5268354416
1581 27 2.3246736526 -4.8329353333
1587 27 3.6043291092 -5.9817790985
1593 27 6.3181214333 -6.6904468536
1599 27 5.7248411179 -6.3989715576
1605 27 4.3192534447 -5.5013799667
1611 27 2.946647644 -4.1155719757
1617 27 2.6524810791 -2.9547843933
1623 27 2.5108156204 -2.3802623749
1629 27 2.036737442 -2.741024971
1635 27 2.163025856 -3.8013591766
1641 27 1.608754158 -4.0058107376
1647 27 1.329996109 -3.7024641037
1653 27 1.685333252 -3.0434894562
1659 27 2.7880592346 -2.2002067566
1665 27 3.7432279587 -1.2982902527
1671 27 5.4741411209 -0.5537614822
1677 27 7.6226677895 1.3850660324
1683 27 7.3430161476 -1.4368524551
1707 27 4.837905407 -12.1022090912
1713 27 4.3074574471 -7.6204547882
1719 27 3.9911365509 -7.2278518677
1725 27 3.6486234665 -6.024394989
1731 27 3.6592140198 -4.3775138855
1737 27 3.6259450912 -2.2383527756
1743 27 2.9775419235 0.1164197922
1749 27 2.4458856583 0.0588083267
1755 27 1.8078832626 -0.2854042053
1761 27 1.8303937912 -1.1099967957
1767 27 2.2016086578 -2.134106636
1773 27 1.9677743912 -2.4949073792
1779 27 1.3346395493 -3.0356588364
1785 27 1.0221748352 -3.5390300751
1791 27 0.5751333237 -3.873254776
1797 27 0.3391389847 -4.1401185989
1803 27 -0.3176937103 -3.9314069748
1809 27 3.0596113205 -3.3343334198
1815 27 4.2811832428 -2.6873960495
1821 27 4.7524333 -2.1544122696
1827 27 4.0411696434 -2.0276107788
1833 27 3.1259708405 -3.4670476913
1839 27 2.957201004 -4.5973367691
1845 27 2.4649400711 -0.8642625809
1851 27 2.4277582169 -2.2018795013
1857 27 1.6979475021 -2.6363277435
1863 27 1.3340377808 -3.2510414124
1869 27 1.9464797974 -3.1885652542
1875 27 1.6997032166 -2.1814556122
1881 27 2.2329111099 -1.5992040634
1887 27 3.1640748978 -1.1634292603
1893 27 3.5023584366 -1.7538900375
1899 27 3.5261974335 -1.94049263
1905 27 3.1004843712 -1.1968946457
1911 27 2.9698400497 -1.8557500839
1917 27 1.9890422821 -2.1783561707
1923 27 3.2826795578 -1.7726974487
1929 27 0.8151454926 -0.9166946411
1935 27 0.5559568405 -0.1771812439
1941 27 0.1982898712 1.4895763397
1959 27 -7.5113024712 12.9152727127
1965 27 -4.8042297363 11.5168600082
1977 27 3.0606832504 0.5836181641
1983 27 1.9676599503 -1.199426651
1989 27 2.2719087601 -1.8570213318
1995 27 3.0643558502 -2.5841627121
2001 27 3.1297454834 -2.980055809
2007 27 3.2398061752 -3.0491809845
2013 27 3.6214876175 -2.814666748
2019 27 4.739379406 -2.8880958557
2025 27 5.3786535263 -3.0873279572
2031 27 7.1465792656 -3.3424329758
2037 27 9.3109970093 -4.1226768494
2043 27 6.1551551819 -3.2877569199
2049 27 10.4323215485 -2.0024442673
2055 27 4.82908535 -2.081372261
2061 27 4.3587164879 -1.8994455338
2067 27 3.9052944183 -2.0823955536
2073 27 3.3587841988 -2.8975877762
2079 27 3.2985959053 -5.6977128983
2085 27 3.4702591896 -4.7428846359
2091 27 4.1929788589 -0.9705066681
2097 27 4.5555734634 0.595536232
2103 27 5.0197029114 1.4511117935
2109 27 7.0937447548 1.6485719681
2115 27 6.2277579308 -0.2295694351
2121 27 5.6466293335 3.8730134964
2127 27 4.9499950409 4.9093084335
2133 27 1.35044384 4.6785526276
2139 27 1.3122549057 2.3119888306
2145 27 4.0839138031 -0.5115337372
2151 27 7.1322374344 -2.8682832718
2157 27 7.5888614655 -4.4522008896
2163 27 7.2348670959 -4.9281158447
2169 27 6.5020809174 -5.4614019394
2175 27 5.5001716614 -5.6838550568
2181 27 6.1858558655 -6.6206617355
2187 27 4.080239296 -5.8257417679
2193 27 3.8411817551 -3.7507658005
2199 27 3.2922716141 -2.1864299774
2205 27 2.9880166054 -0.7819738388
2211 27 3.2145881653 -0.1366386414
2217 27 3.7645702362 0.0334281921
27 33 -3.930478096 -13.5471963882
33 33 -1.5740537643 -13.5150957108
39 33 0.2909898758 -14.0830488205
45 33 0.3391332626 -14.208108902
51 33 0.5479784012 -14.1331768036
57 33 0.9577760696 -14.235906601
63 33 1.3663253784 -14.7455978394
69 33 1.8823518753 -15.5537509918
75 33 2.5799894333 -16.4628276825
81 33 0.1378622055 -17.1557731628
87 33 -2.3407020569 -17.2766876221
93 33 -3.5016746521 -16.970123291
99 33 -3.1962833405 -16.447681427
105 33 -1.8466625214 -16.1213150024
111 33 -0.7189693451 -16.1380901337
117 33 -0.1523771286 -15.5266275406
123 33 1.6936235428 -14.1632795334
129 33 5.1880960464 -11.9946613312
135 33 8.2032966614 -9.9825906754
141 33 8.7398920059 -9.2685174942
147 33 6.7325510979 -9.8694868088
153 33 4.076792717 -12.3472223282
159 33 1.6712331772 -14.3809862137
165 33 -0.8785028458 -15.7734565735
171 33 -0.1491823196 -16.1741867065
177 33 0.6745872498 -15.8445129395
183 33 1.3494558334 -15.0627126694
189 33 1.2961654663 -14.2229471207
195 33 1.1949224472 -15.3161020279
201 33 1.302740097 -17.122795105
207 33 1.1660823822 -16.4314689636
213 33 0.994269371 -15.0833396912
219 33 0.3065338135 -13.2047872543
225 33 0.5583744049 -11.1010112762
231 33 1.0058298111 -10.0874090195
237 33 1.8293533325 -9.7013959885
243 33 -0.3056621552 -8.725394249
267 33 1.0033721924 -11.2792539597
273 33 -0.7060718536 -12.0063438416
279 33 -4.7326321602 -12.6595201492
285 33 -1.3840866089 -13.3762607574
291 33 -2.6790008545 -14.183807373
297 33 -1.492184639 -14.7637834549
303 33 2.0681848526 -15.7656879425
309 33 4.1579456329 -16.5298843384
315 33 7.288479805 -18.5867500305
327 33 2.5216808319 -15.7412147522
333 33 1.9283809662 -15.3481445313
339 33 1.2952194214 -15.4076681137
345 33 0.8233156204 -15.9798898697
351 33 0.2800064087 -16.0244827271
357 33 0.4695672989 -15.6609964371
363 33 1.9631614685 -15.3479175568
369 33 2.1556167603 -14.905412674
375 33 2.441701889 -14.8649263382
381 33 1.1332988739 -14.8940477371
387 33 -0.7024526596 -14.8732843399
393 33 -2.8167257309 -14.8526525497
399 33 -4.271071434 -15.1364393234
405 33 -5.7065343857 -16.0028438568
411 33 -7.2238311768 -16.8061332703
417 33 -4.3439044952 -18.0181465149
423 33 -1.0430297852 -20.0284347534
441 33 5.3218479156 -16.8493862152
447 33 4.4319262505 -12.1662569046
453 33 3.6573295593 -10.3463411331
459 33 3.0561342239 -9.8596763611
465 33 2.5936517715 -10.838180542
471 33 2.8176174164 -12.5897121429
477 33 3.141740799 -14.7290315628
483 33 2.6073169708 -16.4767799377
489 33 2.2932853699 -17.3829841614
495 33 0.6494789124 -17.7179718018
501 33 -4.7383027077 -18.4136619568
507 33 -0.3229074478 -18.2626152039
513 33 -0.7307929993 -21.3717441559
525 33 -0.1413764954 -14.2605485916
531 33 -1.4479494095 -12.8971500397
537 33 -1.0311098099 -11.9077606201
543 33 -0.4547805786 -11.0378684998
549 33 0.0291223526 -10.5046653748
555 33 0.1192092896 -10.2923650742
561 33 -0.2572202682 -10.2120199203
567 33 -0.1845684052 -10.25066185
573 33 -0.028512001 -10.4053592682
579 33 0.8763484955 -10.8628149033
585 33 1.484708786 -11.7968006134
591 33 2.1955966949 -11.4971160889
597 33 2.9913797379 -10.3943004608
603 33 3.7227497101 -9.1606311798
609 33 7.7204914093 -4.186340332
615 33 8.5755786896 -9.9635019302
627 33 7.1030168533 -14.1154212952
633 33 2.8271999359 -15.8553829193
639 33 -1.7525081635 -15.4035663605
645 33 0.7477111816 -15.2501163483
651 33 -1.4075613022 -14.0466547012
657 33 -2.4562568665 -15.7596416473
663 33 -1.4780883789 -13.2869491577
669 33 -1.8040122986 -12.4789791107
675 33 0.0964784622 -12.0189237595
681 33 0.8606243134 -11.657201767
687 33 1.7253112793 -11.6021251678
693 33 2.3065433502 -11.8460454941
699 33 2.8410215378 -11.7358455658
705 33 4.0273094177 -11.5359363556
711 33 4.3146457672 -11.2439146042
717 33 7.7111167908 -10.7751560211
723 33 3.2348284721 -11.0809612274
729 33 2.5086317062 -11.2627763748
735 33 1.7489004135 -12.4827213287
741 33 1.6837587357 -11.7085294724
747 33 1.6200284958 -9.6428337097
759 33 -4.0585093498 -15.081032753
777 33 3.4433193207 -10.3617753983
783 33 3.6663298607 -9.2468299866
789 33 2.691860199 -6.6418180466
795 33 0.9650125504 -8.6120290756
801 33 0.0180072784 -8.7836370468
807 33 0.4442491531 -8.2980184555
813 33 2.3140716553 -8.5959796906
819 33 3.2071437836 -7.923169136
825 33 3.6027526855 -7.231089592
831 33 3.557682991 -7.1411943436
837 33 3.1617612839 -7.5070743561
843 33 3.3197979927 -9.0821352005
849 33 4.0469379425 -11.7915964127
855 33 2.7982406616 -13.8720703125
861 33 2.5847549438 -17.7525367737
891 33 4.8676629066 -11.2800951004
897 33 2.5598468781 -11.0739126205
903 33 0.4651060104 -11.2399768829
909 33 1.1074228287 -10.9234447479
915 33 1.2542362213 -9.8572330475
921 33 1.2682733536 -8.5744867325
927 33 0.8576612473 -7.9929437637
933 33 0.4763069153 -8.0692453384
939 33 0.3465795517 -8.6205663681
945 33 0.8751869202 -9.2621603012
951 33 1.6221637726 -9.6385822296
957 33 2.6499099731 -9.5609445572
963 33 3.2791309357 -9.3110895157
969 33 3.5458960533 -9.0081481934
975 33 3.8221063614 -8.8405294418
981 33 4.1058573723 -9.0499076843
987 33 4.5416984558 -8.0138788223
993 33 4.291138649 -7.3204746246
999 33 3.4586849213 -6.8124752045
1005 33 2.7725629807 -6.4443769455
1011 33 2.7316970825 -6.2979726791
1017 33 2.3243598938 -6.2480230331
1023 33 2.065659523 -5.9702281952
1029 33 2.2899456024 -5.6072664261
1035 33 2.7339849472 -5.3738193512
1041 33 3.6980552673 -5.0537900925
1047 33 5.1745433807 -5.5677585602
1053 33 6.7118778229 -6.3528518677
1059 33 2.9889698029 -7.5594215393
1065 33 1.4474945068 -7.5365839005
1071 33 -0.9341526031 -7.4059925079
1077 33 0.4937934875 -7.4352664948
1083 33 0.9558858871 -7.370803833
1089 33 1.9484910965 -7.3099155426
1095 33 2.1413516998 -7.3652572632
1101 33 1.2943353653 -7.2697095871
1107 33 -0.7674741745 -7.2653512955
1113 33 0.9390115738 -7.6663761139
1119 33 0.945098877 -7.6408367157
1125 33 1.2906770706 -8.2254838943
1131 33 1.1141338348 -8.5963449478
1137 33 0.7488431931 -8.8048448563
1143 33 1.4854831696 -8.8516578674
1149 33 2.1641387939 -8.601140976
1155 33 2.7988643646 -8.2463083267
1161 33 3.2272195816 -7.7740745544
1167 33 3.4510502815 -7.1578187943
1173 33 3.4478473663 -6.4372138977
1179 33 3.5746688843 -5.9819307327
1185 33 4.1295056343 -6.5820159912
1191 33 4.5161309242 -7.8556623459
1197 33 4.3253698349 -9.1295585632
1203 33 5.2240972519 -10.4549713135
1209 33 6.8023700714 -12.5874948502
1215 33 3.8288192749 -15.909198761
1221 33 3.1740598679 -10.4748735428
1227 33 2.2683191299 -8.2651062012
1233 33 1.8219909668 -6.5168628693
1239 33 1.9780883789 -5.8523263931
1245 33 2.2547159195 -6.0589952469
1251 33 2.5480470657 -6.1739349365
1257 33 1.9636945724 -6.2016582489
1263 33 1.3750629425 -6.8798017502
1269 33 1.5321874619 -7.1964445114
1275 33 1.8901443481 -6.6406059265
1281 33 3.4944629669 -5.9224443436
1287 33 5.0239706039 -4.1143341064
1293 33 3.8213300705 -3.8586196899
1299 33 8.3647422791 -4.9032249451
1305 33 6.91801548 -4.8437948227
1311 33 1.0063915253 -4.2513771057
1317 33 0.5117416382 -3.8040084839
1323 33 -1.1323385239 -3.5743131638
1329 33 1.2332391739 -3.8429288864
1335 33 2.3652849197 -5.3310041428
1341 33 7.4422874451 -8.1842784882
1347 33 2.848941803 -5.2684402466
1359 33 2.4600362778 0.4551925659
1365 33 2.550907135 -1.2865419388
1371 33 2.8178873062 -3.5574026108
1377 33 4.8381738663 -1.5625400543
1389 33 3.6516852379 -6.732003212
1395 33 5.9021701813 -6.8627614975
1413 33 5.7702589035 -5.9012336731
1419 33 -6.4925646782 -6.2746353149
1425 33 -8.2289333344 -6.1914806366
1431 33 -1.5953607559 -6.1944055557
1437 33 1.7316579819 -6.0052900314
1443 33 3.2636413574 -6.1418733597
1449 33 4.0496821404 -6.363992691
1455 33 3.4599218369 -6.9235610962
1473 33 1.8002662659 -6.0773582458
1479 33 2.3091936111 -6.917599678
1485 33 3.4339904785 -8.5954580307
1491 33 4.5625319481 -7.9537630081
1497 33 4.8179302216 -7.8180522919
1503 33 2.4885349274 -6.2464914322
1509 33 1.0893573761 -4.2774515152
1515 33 1.6069078445 -3.5469303131
1521 33 1.5734901428 -2.8017787933
1527 33 1.0463533401 -2.7758283615
1539 33 -1.8604755402 -2.3714027405
1545 33 1.0939378738 -1.8357868195
1551 33 2.1749782562 -1.3778657913
1557 33 2.584321022 -1.1443090439
1563 33 2.3207883835 -1.330824852
1569 33 1.7131929398 -1.834028244
1575 33 1.96413517 -3.2969522476
1581 33 2.4065294266 -5.7574415207
1587 33 3.2494039536 -7.575545311
1593 33 4.4594688416 -7.9416160583
1599 33 4.6902656555 -6.9269418716
1605 33 3.8519377708 -5.4857168198
1611 33 3.1036634445 -3.2052593231
1617 33 3.2609295845 -1.7583169937
1623 33 2.3930425644 -1.2010679245
1629 33 1.7524709702 -1.7693243027
1635 33 1.9560079575 -2.8995056152
1641 33 0.8351516724 -3.2175283432
1647 33 1.2376642227 -3.4287157059
1653 33 1.8231744766 -2.6902360916
1659 33 2.817032814 -1.5930147171
1665 33 3.8642225266 -1.2706737518
1671 33 4.9961457253 -0.8865270615
1677 33 6.1493439674 -0.8134794235